# Atom and bond counts
448 atoms
166 bonds
0 angles
0 dihedrals

57 atom types
3 bond types
0 angle types
0 dihedral types

# periodic box information
-100 100 xlo xhi
-100 100 ylo yhi
-100 100 zlo zhi

Atoms

   0   0   1   0   0   0
   1   0   1   0.894937   -2.11959   -1.46016
   2   0   1   -0.100093   -2.6171   -3.94773
   3   0   1   1.31191   -4.31151   -2.34746
   4   0   1   0.81033   -1.74091   -1.59509
   5   0   1   0.854106   0.141438   -3.56499
   6   0   1   -0.884914   -1.65755   -4.64438
   7   0   1   -0.69607   -3.67188   -2.81889
   8   0   1   -0.60216   -5.64399   -4.69708
   9   0   1   -2.38345   -3.94015   -3.53537
   10   0   1   -0.624287   -5.77749   -4.51268
   11   0   1   -0.41335   -6.26968   -7.18455
   12   0   1   1.45598   -4.86768   -5.78255
   13   0   1   -0.593458   -6.54927   -6.41315
   14   0   1   -2.0565   -6.22415   -8.68899
   15   0   1   -3.49331   -8.482   -9.20214
   16   0   1   -1.85451   -10.0215   -7.66266
   17   0   1   -0.715353   -12.1099   -6.33364
   18   0   1   -1.57203   -13.7519   -8.33256
   19   0   1   -3.35513   -15.1871   -9.81122
   20   0   1   -4.98391   -16.6801   -11.4061
   21   0   1   -6.49139   -17.9723   -13.2725
   22   0   1   -5.27871   -17.7028   -15.6978
   23   0   1   -3.17799   -18.6861   -17.1281
   24   0   1   -1.81521   -16.8171   -18.5688
   25   0   1   -3.76621   -18.7168   -18.6715
   26   0   1   -3.82332   -20.2016   -20.9557
   27   0   1   -5.80503   -19.2969   -19.3187
   28   0   1   -6.61459   -21.8875   -19.0758
   29   0   1   -6.42473   -24.3556   -17.9366
   30   0   1   -7.91254   -25.5302   -15.979
   31   0   1   -7.18704   -23.8813   -13.9344
   32   0   1   -5.06586   -23.4024   -12.2922
   33   0   1   -6.53824   -24.384   -10.2199
   34   0   1   -5.19478   -22.9615   -12.1166
   35   0   1   -3.31213   -20.9932   -12.031
   36   0   1   -4.36698   -22.6714   -13.9009
   37   0   1   -6.03445   -20.5439   -13.5559
   38   0   1   -4.16366   -22.5017   -13.8605
   39   0   1   -4.69779   -19.8311   -13.9495
   40   0   1   -2.68505   -19.0096   -12.3065
   41   0   1   -4.0594   -20.7386   -13.9025
   42   0   1   -1.75651   -20.2486   -15.2744
   43   0   1   -3.84158   -18.6196   -15.926
   44   0   1   -5.69595   -18.8183   -13.9392
   45   0   1   -7.63798   -17.912   -12.2561
   46   0   1   -6.15534   -19.5848   -13.8148
   47   0   1   -6.87996   -18.1838   -16.0369
   48   0   1   -5.15176   -18.7455   -14.0063
   49   0   1   -2.70536   -18.396   -15.1546
   50   0   1   -4.43252   -18.2881   -13.0496
   51   0   1   -3.28807   -17.6638   -10.6567
   52   0   1   -2.52233   -16.1802   -12.8103
   53   0   1   -0.751524   -16.3278   -10.7444
   54   0   1   1.41952   -16.5745   -9.11609
   55   0   1   3.92573   -15.7391   -8.44777
   56   0   1   3.12717   -17.8353   -6.90056
   57   0   1   1.6385   -16.1605   -8.45126
   58   0   1   3.33618   -18.0238   -7.41609
   59   0   1   5.98714   -18.3485   -6.87508
   60   0   1   8.29541   -18.6997   -8.28012
   61   0   1   6.61595   -16.7803   -7.32042
   62   0   1   4.78022   -18.324   -8.61378
   63   0   1   3.08037   -16.8721   -10.172
   64   0   1   1.08168   -16.3143   -11.9383
   65   0   1   -0.489271   -14.8481   -10.2626
   66   0   1   0.195347   -15.7194   -12.7521
   67   0   1   1.42497   -16.2869   -15.1167
   68   0   1   -0.923822   -15.4883   -13.9893
   69   0   1   -2.1572   -17.04   -12.1194
   70   0   1   -0.775371   -16.0266   -14.2382
   71   0   1   -3.38737   -15.2953   -14.4994
   72   0   1   -4.0667   -14.2763   -16.9337
   73   0   1   -4.7237   -15.426   -19.3153
   74   0   1   -6.0792   -16.9901   -21.0878
   75   0   1   -3.88189   -18.5596   -20.7216
   76   0   1   -4.59322   -20.741   -22.1917
   77   0   1   -5.48427   -18.6916   -20.6324
   78   0   1   -4.86417   -17.2299   -22.847
   79   0   1   -5.41436   -16.6011   -25.4408
   80   0   1   -7.86318   -17.5194   -24.6755
   81   0   1   -9.52327   -19.1795   -26.0589
   82   0   1   -7.37941   -17.6252   -25.4158
   83   0   1   -8.74877   -18.9946   -23.4986
   84   0   1   -8.84925   -16.8343   -25.1565
   85   0   1   -10.6389   -15.9153   -23.3185
   86   0   1   -9.4806   -17.1701   -21.195
   87   0   1   -7.7475   -17.7478   -19.1731
   88   0   1   -5.99861   -15.824   -19.9892
   89   0   1   -7.86613   -17.1398   -18.5037
   90   0   1   -6.78628   -19.1195   -16.9739
   91   0   1   -7.04186   -17.126   -18.8141
   92   0   1   -6.72121   -19.3705   -20.3257
   93   0   1   -6.2525   -16.9332   -21.4506
   94   0   1   -6.71338   -19.5668   -21.9773
   95   0   1   -4.67456   -19.9213   -23.7502
   96   0   1   -3.87573   -18.2767   -21.7296
   97   0   1   -5.70194   -18.8474   -19.7893
   98   0   1   -8.24839   -18.1021   -19.1682
   99   0   1   -6.87   -19.3588   -21.1547
   100   0   1   -5.70762   -17.2454   -22.4228
   101   0   1   -3.93123   -15.6093   -23.6849
   102   0   1   -2.58615   -15.6093   -26.0548
   103   0   1   -1.46326   -17.5596   -24.5182
   104   0   1   0.705948   -19.1288   -24.0105
   105   0   1   1.97315   -20.8346   -22.3047
   106   0   1   2.75829   -22.0684   -24.604
   107   0   1   3.89742   -21.1002   -26.8823
   108   0   1   2.13742   -22.3802   -28.5223
   109   0   1   4.12658   -24.1843   -28.9849
   110   0   1   5.38869   -21.7698   -29.0398
   111   0   1   4.9191   -19.0864   -29.1069
   112   0   1   7.58755   -19.4769   -29.4974
   113   0   1   9.44119   -17.7391   -28.5126
   114   0   1   7.72229   -16.2071   -27.0553
   115   0   1   10.0955   -15.5181   -25.9069
   116   0   1   8.85032   -17.308   -24.2726
   117   0   1   10.3543   -15.7634   -22.606
   118   0   1   8.5002   -16.505   -24.4601
   119   0   1   6.11392   -17.8199   -24.4114
   120   0   1   8.7357   -18.4207   -23.9745
   121   0   1   10.6849   -20.2616   -24.4618
   122   0   1   11.7873   -18.8325   -26.5033
   123   0   1   11.1456   -21.4577   -26.1533
   124   0   1   9.04032   -22.3349   -27.6446
   125   0   1   9.92088   -22.3349   -25.0658
   126   0   1   7.96927   -20.7525   -26.1207
   127   0   1   8.10019   -18.7014   -27.9099
   128   0   1   10.1093   -17.936   -26.2357
   129   0   1   9.63525   -20.2116   -27.6579
   130   0   1   11.2559   -20.5717   -25.497
   131   0   1   13.9343   -20.6935   -25.984
   132   0   1   12.5881   -19.7063   -28.1378
   133   0   1   13.9795   -18.8984   -30.3371
   134   0   1   15.5275   -19.3478   -28.14
   135   0   1   17.4522   -19.2195   -26.2153
   136   0   1   17.2095   -21.0645   -28.2059
   137   0   1   16.722   -22.6731   -26.0611
   138   0   1   16.1281   -25.3188   -26.3311
   139   0   1   14.817   -26.5479   -28.3795
   140   0   1   14.9484   -25.6283   -25.8177
   141   0   1   13.0597   -24.0634   -27.0049
   142   0   1   11.4449   -26.0509   -27.9366
   143   0   1   9.71239   -27.4534   -29.5041
   144   0   1   8.4133   -28.4407   -31.6865
   145   0   1   10.4374   -29.4527   -30.1685
   146   0   1   8.55223   -27.6723   -31.0063
   147   0   1   10.5074   -28.0633   -32.8637
   148   0   1   9.22107   -26.8485   -30.7913
   149   0   1   11.2211   -28.6985   -30.7413
   150   0   1   9.15594   -27.4414   -29.4842
   151   0   1   8.17572   -25.6988   -31.3357
   152   0   1   6.79939   -27.901   -32.1615
   153   0   1   7.65838   -29.9806   -33.6987
   154   0   1   8.85282   -30.8406   -31.4053
   155   0   1   8.75899   -32.8579   -33.2349
   156   0   1   10.7631   -31.1152   -33.8449
   157   0   1   9.10922   -33.0141   -34.8862
   158   0   1   6.67941   -32.1418   -34.014
   159   0   1   8.67655   -33.1608   -32.4652
   160   0   1   9.82982   -31.196   -33.9602
   161   0   1   11.9183   -31.5757   -35.6689
   162   0   1   14.0815   -30.9447   -34.1366
   163   0   1   13.4467   -29.7808   -36.5174
   164   0   1   10.9394   -29.7181   -35.4518
   165   0   1   9.69931   -29.8309   -33.0279
   166   0   1   10.3892   -31.7627   -31.2341
   167   0   1   8.23327   -32.7533   -32.5743
   168   0   1   10.6841   -32.9664   -33.7464
   169   0   1   13.1208   -34.1847   -33.8073
   170   0   1   11.9181   -35.9386   -35.5112
   171   0   1   13.266   -34.4643   -37.3646
   172   0   1   13.9399   -32.5462   -39.179
   173   0   1   11.878   -33.9501   -40.2758
   174   0   1   13.7181   -33.6945   -38.2823
   175   0   1   14.4456   -35.5322   -36.4063
   176   0   1   14.2163   -37.4234   -34.4578
   177   0   1   12.9022   -39.4544   -35.7123
   178   0   1   14.7932   -40.7991   -34.2835
   179   0   1   12.2738   -39.8066   -33.9781
   180   0   1   12.4919   -39.0796   -36.5953
   181   0   1   9.97649   -39.0796   -37.6434
   182   0   1   11.3164   -41.3307   -38.3937
   183   0   1   11.4821   -40.7231   -35.7425
   184   0   1   9.79261   -42.131   -34.1334
   185   0   1   8.26973   -42.131   -31.8737
   186   0   1   8.40732   -41.3743   -34.4879
   187   0   1   8.25335   -39.1674   -32.8968
   188   0   1   7.61356   -36.6663   -32.0244
   189   0   1   7.67022   -34.06   -31.2311
   190   0   1   9.23389   -34.6012   -29.0661
   191   0   1   10.3422   -36.7123   -30.3855
   192   0   1   11.9012   -38.4068   -31.8428
   193   0   1   13.7316   -36.7856   -30.6399
   194   0   1   14.1164   -34.4124   -29.3571
   195   0   1   16.0077   -36.1829   -28.5121
   196   0   1   15.503   -34.3535   -30.4677
   197   0   1   13.6899   -34.8068   -28.4846
   198   0   1   13.9456   -32.5694   -30.0188
   199   0   1   12.2664   -34.1666   -31.4523
   200   0   1   10.2216   -32.8034   -30.275
   201   0   1   8.49201   -34.0045   -28.5454
   202   0   1   10.6314   -34.8603   -30.0001
   203   0   1   12.0056   -36.9926   -30.9952
   204   0   1   10.9892   -35.9763   -33.3103
   205   0   1   9.21073   -35.0681   -35.1645
   206   0   1   9.40587   -36.0438   -32.6276
   207   0   1   9.77995   -33.4252   -31.973
   208   0   1   7.95085   -33.2021   -29.9654
   209   0   1   10.1193   -31.5541   -29.8787
   210   0   1   8.55282   -29.8086   -31.2662
   211   0   1   9.88184   -31.8971   -30.127
   212   0   1   10.631   -30.6712   -32.4425
   213   0   1   12.2853   -32.5737   -33.4765
   214   0   1   13.1054   -35.1601   -33.7288
   215   0   1   15.5464   -34.1214   -34.3521
   216   0   1   14.0332   -33.223   -32.2715
   217   0   1   15.8511   -32.1726   -30.5344
   218   0   1   15.7644   -34.5157   -29.1458
   219   0   1   17.0499   -33.2302   -31.1757
   220   0   1   15.0181   -32.0208   -32.5302
   221   0   1   12.7304   -33.043   -33.6011
   222   0   1   15.1047   -34.1052   -32.7888
   223   0   1   14.0243   -31.9443   -34.0493
   224   0   2   -93.5738   -95.3216   -69.8455
   225   0   2   -93.5738   -92.6966   -69.8455
   226   0   2   -93.5738   -90.0716   -69.8455
   227   0   2   -93.5738   -87.4466   -69.8455
   228   0   3   -23.825   -27.1147   82.49
   229   0   3   -23.825   -24.4897   82.49
   230   0   3   -23.825   -21.8647   82.49
   231   0   3   -23.825   -19.2397   82.49
   232   0   4   -29.1066   5.70736   -76.4331
   233   0   4   -29.1066   8.33236   -76.4331
   234   0   4   -29.1066   10.9574   -76.4331
   235   0   4   -29.1066   13.5824   -76.4331
   236   0   5   44.0174   0.704895   47.1782
   237   0   5   44.0174   3.3299   47.1782
   238   0   5   44.0174   5.9549   47.1782
   239   0   5   44.0174   8.5799   47.1782
   240   0   6   -54.9466   -87.6576   -60.8744
   241   0   6   -54.9466   -85.0326   -60.8744
   242   0   6   -54.9466   -82.4076   -60.8744
   243   0   6   -54.9466   -79.7826   -60.8744
   244   0   7   76.5895   39.549   99.7577
   245   0   7   76.5895   42.174   99.7577
   246   0   7   76.5895   44.799   99.7577
   247   0   7   76.5895   47.424   99.7577
   248   0   8   -43.0861   52.1557   -18.9024
   249   0   8   -43.0861   54.7807   -18.9024
   250   0   8   -43.0861   57.4057   -18.9024
   251   0   8   -43.0861   60.0307   -18.9024
   252   0   9   -98.0221   -57.0583   21.2542
   253   0   9   -98.0221   -54.4333   21.2542
   254   0   9   -98.0221   -51.8083   21.2542
   255   0   9   -98.0221   -49.1833   21.2542
   256   0   10   27.6755   -58.3283   75.5036
   257   0   10   27.6755   -55.7033   75.5036
   258   0   10   27.6755   -53.0783   75.5036
   259   0   10   27.6755   -50.4533   75.5036
   260   0   11   15.8001   -47.219   -9.1912
   261   0   11   15.8001   -44.594   -9.1912
   262   0   11   15.8001   -41.969   -9.1912
   263   0   11   15.8001   -39.344   -9.1912
   264   0   12   -43.3959   44.8621   -1.93413
   265   0   12   -43.3959   47.4871   -1.93413
   266   0   12   -43.3959   50.1121   -1.93413
   267   0   12   -43.3959   52.7371   -1.93413
   268   0   13   -27.7768   -44.411   -15.4583
   269   0   13   -27.7768   -41.786   -15.4583
   270   0   13   -27.7768   -39.161   -15.4583
   271   0   13   -27.7768   -36.536   -15.4583
   272   0   14   72.8607   -29.7288   -51.2924
   273   0   14   72.8607   -27.1038   -51.2924
   274   0   14   72.8607   -24.4788   -51.2924
   275   0   14   72.8607   -21.8538   -51.2924
   276   0   15   -14.3176   -36.6955   58.5959
   277   0   15   -14.3176   -34.0705   58.5959
   278   0   15   -14.3176   -31.4455   58.5959
   279   0   15   -14.3176   -28.8205   58.5959
   280   0   16   -54.6907   13.9717   21.9285
   281   0   16   -54.6907   16.5967   21.9285
   282   0   16   -54.6907   19.2217   21.9285
   283   0   16   -54.6907   21.8467   21.9285
   284   0   17   -48.465   49.4357   65.6688
   285   0   17   -48.465   52.0607   65.6688
   286   0   17   -48.465   54.6857   65.6688
   287   0   17   -48.465   57.3107   65.6688
   288   0   18   -27.2666   -70.5468   -79.4771
   289   0   18   -27.2666   -67.9218   -79.4771
   290   0   18   -27.2666   -65.2968   -79.4771
   291   0   18   -27.2666   -62.6718   -79.4771
   292   0   19   -1.25838   50.3977   34.5971
   293   0   19   -1.25838   53.0227   34.5971
   294   0   19   -1.25838   55.6477   34.5971
   295   0   19   -1.25838   58.2727   34.5971
   296   0   20   83.9343   84.2922   98.3435
   297   0   20   83.9343   86.9172   98.3435
   298   0   20   83.9343   89.5422   98.3435
   299   0   20   83.9343   92.1672   98.3435
   300   0   21   -43.2698   -35.0496   -77.8889
   301   0   21   -43.2698   -32.4246   -77.8889
   302   0   21   -43.2698   -29.7996   -77.8889
   303   0   21   -43.2698   -27.1746   -77.8889
   304   0   22   81.0193   90.5835   37.3914
   305   0   22   81.0193   93.2085   37.3914
   306   0   22   81.0193   95.8335   37.3914
   307   0   22   81.0193   98.4585   37.3914
   308   0   23   -12.9079   57.7079   96.0394
   309   0   23   -12.9079   60.3329   96.0394
   310   0   23   -12.9079   62.9579   96.0394
   311   0   23   -12.9079   65.5829   96.0394
   312   0   24   86.4924   78.015   -2.30057
   313   0   24   86.4924   80.64   -2.30057
   314   0   24   86.4924   83.265   -2.30057
   315   0   24   86.4924   85.89   -2.30057
   316   0   25   13.252   -74.0476   82.1699
   317   0   25   13.252   -71.4226   82.1699
   318   0   25   13.252   -68.7976   82.1699
   319   0   25   13.252   -66.1726   82.1699
   320   0   26   46.4501   87.4799   74.4352
   321   0   26   46.4501   90.1049   74.4352
   322   0   26   46.4501   92.7299   74.4352
   323   0   26   46.4501   95.3549   74.4352
   324   0   27   -7.1322   -70.834   92.9084
   325   0   27   -7.1322   -68.209   92.9084
   326   0   27   -7.1322   -65.584   92.9084
   327   0   27   -7.1322   -62.959   92.9084
   328   0   28   -69.3364   63.2179   -97.1127
   329   0   28   -69.3364   65.8429   -97.1127
   330   0   28   -69.3364   68.4679   -97.1127
   331   0   28   -69.3364   71.0929   -97.1127
   332   0   29   -32.8548   9.05885   52.069
   333   0   29   -32.8548   11.6838   52.069
   334   0   29   -32.8548   14.3088   52.069
   335   0   29   -32.8548   16.9338   52.069
   336   0   30   -98.5247   96.1981   0.950766
   337   0   30   -98.5247   98.8231   0.950766
   338   0   30   -98.5247   101.448   0.950766
   339   0   30   -98.5247   104.073   0.950766
   340   0   31   -25.8405   99.2759   -69.4235
   341   0   31   -25.8405   101.901   -69.4235
   342   0   31   -25.8405   104.526   -69.4235
   343   0   31   -25.8405   107.151   -69.4235
   344   0   32   25.3574   -17.8709   44.424
   345   0   32   25.3574   -15.2459   44.424
   346   0   32   25.3574   -12.6209   44.424
   347   0   32   25.3574   -9.99586   44.424
   348   0   33   -77.5755   -10.9139   -29.1576
   349   0   33   -77.5755   -8.28885   -29.1576
   350   0   33   -77.5755   -5.66385   -29.1576
   351   0   33   -77.5755   -3.03885   -29.1576
   352   0   34   -13.2544   33.3473   68.7166
   353   0   34   -13.2544   35.9723   68.7166
   354   0   34   -13.2544   38.5973   68.7166
   355   0   34   -13.2544   41.2223   68.7166
   356   0   35   -19.3514   -39.6658   -63.2388
   357   0   35   -19.3514   -37.0408   -63.2388
   358   0   35   -19.3514   -34.4158   -63.2388
   359   0   35   -19.3514   -31.7908   -63.2388
   360   0   36   -34.815   64.5366   66.6766
   361   0   36   -34.815   67.1616   66.6766
   362   0   36   -34.815   69.7866   66.6766
   363   0   36   -34.815   72.4116   66.6766
   364   0   37   -79.9332   -36.8263   60.0216
   365   0   37   -79.9332   -34.2013   60.0216
   366   0   37   -79.9332   -31.5763   60.0216
   367   0   37   -79.9332   -28.9513   60.0216
   368   0   38   1.90338   -9.97001   34.0571
   369   0   38   1.90338   -7.34501   34.0571
   370   0   38   1.90338   -4.72001   34.0571
   371   0   38   1.90338   -2.09501   34.0571
   372   0   39   -60.2043   -54.1395   78.1874
   373   0   39   -60.2043   -51.5145   78.1874
   374   0   39   -60.2043   -48.8895   78.1874
   375   0   39   -60.2043   -46.2645   78.1874
   376   0   40   -66.9861   -35.4701   53.1982
   377   0   40   -66.9861   -32.8451   53.1982
   378   0   40   -66.9861   -30.2201   53.1982
   379   0   40   -66.9861   -27.5951   53.1982
   380   0   41   -68.3057   -14.5131   77.9856
   381   0   41   -68.3057   -11.8881   77.9856
   382   0   41   -68.3057   -9.26312   77.9856
   383   0   41   -68.3057   -6.63812   77.9856
   384   0   42   35.0703   26.0747   37.2281
   385   0   42   35.0703   28.6997   37.2281
   386   0   42   35.0703   31.3247   37.2281
   387   0   42   35.0703   33.9497   37.2281
   388   0   43   -79.4899   13.6988   35.2723
   389   0   43   -79.4899   16.3238   35.2723
   390   0   43   -79.4899   18.9488   35.2723
   391   0   43   -79.4899   21.5738   35.2723
   392   0   44   -54.5812   53.5191   95.0351
   393   0   44   -54.5812   56.1441   95.0351
   394   0   44   -54.5812   58.7691   95.0351
   395   0   44   -54.5812   61.3941   95.0351
   396   0   45   68.8245   -66.9804   60.4733
   397   0   45   68.8245   -64.3554   60.4733
   398   0   45   68.8245   -61.7304   60.4733
   399   0   45   68.8245   -59.1054   60.4733
   400   0   46   32.5494   56.9994   -10.3351
   401   0   46   32.5494   59.6244   -10.3351
   402   0   46   32.5494   62.2494   -10.3351
   403   0   46   32.5494   64.8744   -10.3351
   404   0   47   -53.2245   56.0591   -14.0146
   405   0   47   -53.2245   58.6841   -14.0146
   406   0   47   -53.2245   61.3091   -14.0146
   407   0   47   -53.2245   63.9341   -14.0146
   408   0   48   94.0289   -56.1117   -70.0975
   409   0   48   94.0289   -53.4867   -70.0975
   410   0   48   94.0289   -50.8617   -70.0975
   411   0   48   94.0289   -48.2367   -70.0975
   412   0   49   86.9858   -29.892   5.00163
   413   0   49   86.9858   -27.267   5.00163
   414   0   49   86.9858   -24.642   5.00163
   415   0   49   86.9858   -22.017   5.00163
   416   0   50   95.3726   -73.0841   75.2786
   417   0   50   95.3726   -70.4591   75.2786
   418   0   50   95.3726   -67.8341   75.2786
   419   0   50   95.3726   -65.2091   75.2786
   420   0   51   25.6697   31.142   2.78918
   421   0   51   25.6697   33.767   2.78918
   422   0   51   25.6697   36.392   2.78918
   423   0   51   25.6697   39.017   2.78918
   424   0   52   53.0922   -79.6872   97.6473
   425   0   52   53.0922   -77.0622   97.6473
   426   0   52   53.0922   -74.4372   97.6473
   427   0   52   53.0922   -71.8122   97.6473
   428   0   53   -73.6609   -18.0257   42.0544
   429   0   53   -73.6609   -15.4007   42.0544
   430   0   53   -73.6609   -12.7757   42.0544
   431   0   53   -73.6609   -10.1507   42.0544
   432   0   54   96.1321   92.9607   -9.28942
   433   0   54   96.1321   95.5857   -9.28942
   434   0   54   96.1321   98.2107   -9.28942
   435   0   54   96.1321   100.836   -9.28942
   436   0   55   -3.70065   3.17591   -22.5471
   437   0   55   -3.70065   5.80091   -22.5471
   438   0   55   -3.70065   8.42591   -22.5471
   439   0   55   -3.70065   11.0509   -22.5471
   440   0   56   -15.0406   13.101   -11.3628
   441   0   56   -15.0406   15.726   -11.3628
   442   0   56   -15.0406   18.351   -11.3628
   443   0   56   -15.0406   20.976   -11.3628
   444   0   57   10.165   43.0926   57.498
   445   0   57   10.165   45.7176   57.498
   446   0   57   10.165   48.3426   57.498
   447   0   57   10.165   50.9676   57.498

Bonds

   1   3   0   1
   2   3   1   0
   3   3   1   2
   4   3   2   1
   5   3   2   3
   6   3   3   2
   7   3   3   4
   8   3   4   3
   9   3   4   5
   10   3   5   4
   11   3   5   6
   12   3   6   5
   13   3   6   7
   14   3   7   6
   15   3   7   8
   16   3   8   7
   17   3   8   9
   18   3   9   8
   19   3   9   10
   20   3   10   9
   21   3   10   11
   22   3   11   10
   23   3   11   12
   24   3   12   11
   25   3   12   13
   26   3   13   12
   27   3   13   14
   28   3   14   13
   29   3   14   15
   30   3   15   14
   31   3   15   16
   32   3   16   15
   33   3   16   17
   34   3   17   16
   35   3   17   18
   36   3   18   17
   37   3   18   19
   38   3   19   18
   39   3   19   20
   40   3   20   19
   41   3   20   21
   42   3   21   20
   43   3   21   22
   44   3   22   21
   45   3   22   23
   46   3   23   22
   47   3   23   24
   48   3   24   23
   49   3   24   25
   50   3   25   24
   51   3   25   26
   52   3   26   25
   53   3   26   27
   54   3   27   26
   55   3   27   28
   56   3   28   27
   57   3   28   29
   58   3   29   28
   59   3   29   30
   60   3   30   29
   61   3   30   31
   62   3   31   30
   63   3   31   32
   64   3   32   31
   65   3   32   33
   66   3   33   32
   67   3   33   34
   68   3   34   33
   69   3   34   35
   70   3   35   34
   71   3   35   36
   72   3   36   35
   73   3   36   37
   74   3   37   36
   75   3   37   38
   76   3   38   37
   77   3   38   39
   78   3   39   38
   79   3   39   40
   80   3   40   39
   81   3   40   41
   82   3   41   40
   83   3   41   42
   84   3   42   41
   85   3   42   43
   86   3   43   42
   87   3   43   44
   88   3   44   43
   89   3   44   45
   90   3   45   44
   91   3   45   46
   92   3   46   45
   93   3   46   47
   94   3   47   46
   95   3   47   48
   96   3   48   47
   97   3   48   49
   98   3   49   48
   99   3   49   50
   100   3   50   49
   101   3   50   51
   102   3   51   50
   103   3   51   52
   104   3   52   51
   105   3   52   53
   106   3   53   52
   107   3   53   54
   108   3   54   53
   109   3   54   55
   110   3   55   54
   111   3   55   56
   112   3   56   55
   113   3   56   57
   114   3   57   56
   115   3   57   58
   116   3   58   57
   117   3   58   59
   118   3   59   58
   119   3   59   60
   120   3   60   59
   121   3   60   61
   122   3   61   60
   123   3   61   62
   124   3   62   61
   125   3   62   63
   126   3   63   62
   127   3   63   64
   128   3   64   63
   129   3   64   65
   130   3   65   64
   131   3   65   66
   132   3   66   65
   133   3   66   67
   134   3   67   66
   135   3   67   68
   136   3   68   67
   137   3   68   69
   138   3   69   68
   139   3   69   70
   140   3   70   69
   141   3   70   71
   142   3   71   70
   143   3   71   72
   144   3   72   71
   145   3   72   73
   146   3   73   72
   147   3   73   74
   148   3   74   73
   149   3   74   75
   150   3   75   74
   151   3   75   76
   152   3   76   75
   153   3   76   77
   154   3   77   76
   155   3   77   78
   156   3   78   77
   157   3   78   79
   158   3   79   78
   159   3   79   80
   160   3   80   79
   161   3   80   81
   162   3   81   80
   163   3   81   82
   164   3   82   81
   165   3   82   83
   166   3   83   82
   167   3   83   84
   168   3   84   83
   169   3   84   85
   170   3   85   84
   171   3   85   86
   172   3   86   85
   173   3   86   87
   174   3   87   86
   175   3   87   88
   176   3   88   87
   177   3   88   89
   178   3   89   88
   179   3   89   90
   180   3   90   89
   181   3   90   91
   182   3   91   90
   183   3   91   92
   184   3   92   91
   185   3   92   93
   186   3   93   92
   187   3   93   94
   188   3   94   93
   189   3   94   95
   190   3   95   94
   191   3   95   96
   192   3   96   95
   193   3   96   97
   194   3   97   96
   195   3   97   98
   196   3   98   97
   197   3   98   99
   198   3   99   98
   199   3   99   100
   200   3   100   99
   201   3   100   101
   202   3   101   100
   203   3   101   102
   204   3   102   101
   205   3   102   103
   206   3   103   102
   207   3   103   104
   208   3   104   103
   209   3   104   105
   210   3   105   104
   211   3   105   106
   212   3   106   105
   213   3   106   107
   214   3   107   106
   215   3   107   108
   216   3   108   107
   217   3   108   109
   218   3   109   108
   219   3   109   110
   220   3   110   109
   221   3   110   111
   222   3   111   110
   223   3   111   112
   224   3   112   111
   225   3   112   113
   226   3   113   112
   227   3   113   114
   228   3   114   113
   229   3   114   115
   230   3   115   114
   231   3   115   116
   232   3   116   115
   233   3   116   117
   234   3   117   116
   235   3   117   118
   236   3   118   117
   237   3   118   119
   238   3   119   118
   239   3   119   120
   240   3   120   119
   241   3   120   121
   242   3   121   120
   243   3   121   122
   244   3   122   121
   245   3   122   123
   246   3   123   122
   247   3   123   124
   248   3   124   123
   249   3   124   125
   250   3   125   124
   251   3   125   126
   252   3   126   125
   253   3   126   127
   254   3   127   126
   255   3   127   128
   256   3   128   127
   257   3   128   129
   258   3   129   128
   259   3   129   130
   260   3   130   129
   261   3   130   131
   262   3   131   130
   263   3   131   132
   264   3   132   131
   265   3   132   133
   266   3   133   132
   267   3   133   134
   268   3   134   133
   269   3   134   135
   270   3   135   134
   271   3   135   136
   272   3   136   135
   273   3   136   137
   274   3   137   136
   275   3   137   138
   276   3   138   137
   277   3   138   139
   278   3   139   138
   279   3   139   140
   280   3   140   139
   281   3   140   141
   282   3   141   140
   283   3   141   142
   284   3   142   141
   285   3   142   143
   286   3   143   142
   287   3   143   144
   288   3   144   143
   289   3   144   145
   290   3   145   144
   291   3   145   146
   292   3   146   145
   293   3   146   147
   294   3   147   146
   295   3   147   148
   296   3   148   147
   297   3   148   149
   298   3   149   148
   299   3   149   150
   300   3   150   149
   301   3   150   151
   302   3   151   150
   303   3   151   152
   304   3   152   151
   305   3   152   153
   306   3   153   152
   307   3   153   154
   308   3   154   153
   309   3   154   155
   310   3   155   154
   311   3   155   156
   312   3   156   155
   313   3   156   157
   314   3   157   156
   315   3   157   158
   316   3   158   157
   317   3   158   159
   318   3   159   158
   319   3   159   160
   320   3   160   159
   321   3   160   161
   322   3   161   160
   323   3   161   162
   324   3   162   161
   325   3   162   163
   326   3   163   162
   327   3   163   164
   328   3   164   163
   329   3   164   165
   330   3   165   164
   331   3   165   166
   332   3   166   165
   333   3   166   167
   334   3   167   166
   335   3   167   168
   336   3   168   167
   337   3   168   169
   338   3   169   168
   339   3   169   170
   340   3   170   169
   341   3   170   171
   342   3   171   170
   343   3   171   172
   344   3   172   171
   345   3   172   173
   346   3   173   172
   347   3   173   174
   348   3   174   173
   349   3   174   175
   350   3   175   174
   351   3   175   176
   352   3   176   175
   353   3   176   177
   354   3   177   176
   355   3   177   178
   356   3   178   177
   357   3   178   179
   358   3   179   178
   359   3   179   180
   360   3   180   179
   361   3   180   181
   362   3   181   180
   363   3   181   182
   364   3   182   181
   365   3   182   183
   366   3   183   182
   367   3   183   184
   368   3   184   183
   369   3   184   185
   370   3   185   184
   371   3   185   186
   372   3   186   185
   373   3   186   187
   374   3   187   186
   375   3   187   188
   376   3   188   187
   377   3   188   189
   378   3   189   188
   379   3   189   190
   380   3   190   189
   381   3   190   191
   382   3   191   190
   383   3   191   192
   384   3   192   191
   385   3   192   193
   386   3   193   192
   387   3   193   194
   388   3   194   193
   389   3   194   195
   390   3   195   194
   391   3   195   196
   392   3   196   195
   393   3   196   197
   394   3   197   196
   395   3   197   198
   396   3   198   197
   397   3   198   199
   398   3   199   198
   399   3   199   200
   400   3   200   199
   401   3   200   201
   402   3   201   200
   403   3   201   202
   404   3   202   201
   405   3   202   203
   406   3   203   202
   407   3   203   204