# Atom and bond counts
448 atoms
166 bonds
0 angles
0 dihedrals

57 atom types
3 bond types
0 angle types
0 dihedral types

# periodic box information
-100 100 xlo xhi
-100 100 ylo yhi
-100 100 zlo zhi

Atoms

   0   0   1   0   0   0
   1   0   1   -0.334594   -1.71479   -2.09121
   2   0   1   1.01446   -3.10737   -0.176422
   3   0   1   3.4068   -3.69086   -1.34342
   4   0   1   3.11664   -5.54786   -3.31648
   5   0   1   2.64594   -4.37112   -0.90415
   6   0   1   3.33354   -6.35302   -2.64337
   7   0   1   3.79537   -3.97793   -3.89689
   8   0   1   6.01647   -2.9807   -5.12076
   9   0   1   4.86905   -1.56331   -3.09591
   10   0   1   5.63443   -3.23758   -5.10504
   11   0   1   3.49962   -1.68095   -4.43791
   12   0   1   2.58167   0.843405   -3.97894
   13   0   1   0.47458   -0.526205   -5.03248
   14   0   1   2.12069   -2.5956   -4.37404
   15   0   1   4.07061   -2.99445   -6.23532
   16   0   1   5.07025   -4.42252   -8.32982
   17   0   1   3.10927   -3.95358   -6.49672
   18   0   1   1.08922   -2.3277   -5.65915
   19   0   1   0.676723   -4.3902   -7.39165
   20   0   1   3.14349   -5.54807   -7.39165
   21   0   1   1.54639   -4.02356   -5.79454
   22   0   1   2.79939   -5.27656   -3.72437
   23   0   1   0.680749   -3.67581   -3.11232
   24   0   1   2.65753   -5.23642   -2.07191
   25   0   1   4.50883   -3.38512   -1.31627
   26   0   1   2.45332   -1.77404   -0.538513
   27   0   1   3.03102   -3.79599   1.19458
   28   0   1   3.11609   -5.92282   2.89605
   29   0   1   1.31904   -7.42036   1.49834
   30   0   1   0.197333   -5.07942   0.669255
   31   0   1   2.17422   -3.30529   1.27753
   32   0   1   0.527091   -4.61454   -0.454069
   33   0   1   2.3679   -5.12588   1.48901
   34   0   1   2.75462   -7.33569   -0.0578571
   35   0   1   1.316   -9.5249   0.692727
   36   0   1   0.157345   -7.06275   0.83756
   37   0   1   -0.253278   -5.42026   -1.29768
   38   0   1   -1.38065   -3.10915   -2.19958
   39   0   1   -3.09421   -2.48604   -0.174463
   40   0   1   -0.966429   -1.48473   -1.55126
   41   0   1   -2.89022   -2.25425   0.218627
   42   0   1   -4.64621   -4.01024   1.34051
   43   0   1   -6.27491   -2.28573   2.68179
   44   0   1   -8.92594   -2.56776   3.24584
   45   0   1   -7.16883   -0.896361   2.00301
   46   0   1   -7.70895   0.0488612   -0.49508
   47   0   1   -5.30639   1.33023   -0.388299
   48   0   1   -6.91428   -0.867226   -0.281107
   49   0   1   -9.34858   -0.479952   0.880718
   50   0   1   -7.75046   -2.45411   1.8678
   51   0   1   -6.07607   -1.05125   3.49692
   52   0   1   -4.05381   -2.81535   3.97022
   53   0   1   -3.28855   -3.73366   6.41904
   54   0   1   -0.740872   -4.27001   7.22357
   55   0   1   -1.70551   -5.52404   5.0049
   56   0   1   -0.238806   -3.88273   6.61129
   57   0   1   0.637243   -3.64912   4.04155
   58   0   1   2.6589   -5.29172   4.84179
   59   0   1   0.395779   -6.48984   3.90991
   60   0   1   -0.0564692   -5.26231   1.51946
   61   0   1   -2.38086   -3.86767   1.79839
   62   0   1   -1.40075   -6.12194   2.97452
   63   0   1   0.950552   -5.2402   1.91644
   64   0   1   1.26773   -2.94067   3.34373
   65   0   1   -0.542302   -1.45973   1.94507
   66   0   1   0.12267   -2.12471   -0.612513
   67   0   1   -1.81605   -1.08441   -2.22023
   68   0   1   -0.371309   -2.81811   -0.692934
   69   0   1   1.86598   -1.27997   -0.925985
   70   0   1   3.52316   0.834358   -0.468832
   71   0   1   5.84366   1.79283   0.590527
   72   0   1   3.25999   2.05119   -0.236245
   73   0   1   4.29771   3.92896   1.44386
   74   0   1   5.3951   6.38195   0.991996
   75   0   1   3.72163   8.26997   -0.0378298
   76   0   1   3.83114   8.98175   2.59029
   77   0   1   2.42769   7.01692   1.32719
   78   0   1   5.13157   6.89116   1.01278
   79   0   1   6.86483   5.83429   -0.805033
   80   0   1   5.68934   4.17792   -2.6217
   81   0   1   4.81839   5.64766   -0.498746
   82   0   1   2.71224   7.07984   -1.46757
   83   0   1   3.20859   9.74773   -1.2194
   84   0   1   1.4918   7.71469   -1.80672
   85   0   1   0.786394   5.16438   -1.15558
   86   0   1   -0.86439   3.36794   -2.36939
   87   0   1   -2.49172   1.56931   -3.6113
   88   0   1   -4.50089   0.14057   -2.45045
   89   0   1   -6.3253   1.8377   -1.34732
   90   0   1   -8.62189   3.30361   -1.29846
   91   0   1   -8.79511   1.13845   0.347062
   92   0   1   -10.6076   2.86858   1.41809
   93   0   1   -9.47275   4.59555   3.1944
   94   0   1   -7.21049   5.21253   1.80619
   95   0   1   -5.53203   5.11928   -0.338499
   96   0   1   -7.27673   5.5298   1.71409
   97   0   1   -9.14968   3.80668   0.740154
   98   0   1   -7.83892   1.55966   -0.0712707
   99   0   1   -9.85855   2.26035   -1.76117
   100   0   1   -7.97244   4.22672   -1.8013
   101   0   1   -6.19862   5.29101   -0.0274727
   102   0   1   -8.67905   6.05877   -0.854285
   103   0   1   -11.267   5.30962   -1.26291
   104   0   1   -12.514   3.3501   -2.68802
   105   0   1   -13.9418   4.93234   -0.989997
   106   0   1   -14.308   3.17502   1.06022
   107   0   1   -12.3726   1.42395   1.84359
   108   0   1   -13.0645   -0.385771   -0.0725856
   109   0   1   -12.332   -0.176465   2.54374
   110   0   1   -14.1665   -1.58163   1.09955
   111   0   1   -15.1981   -4.05745   1.58096
   112   0   1   -15.4394   -6.71266   1.01773
   113   0   1   -14.2277   -4.98679   2.74359
   114   0   1   -12.8083   -7.30938   2.87263
   115   0   1   -10.6578   -6.35361   1.49872
   116   0   1   -9.99566   -8.74764   0.378107
   117   0   1   -8.23809   -9.96442   2.06808
   118   0   1   -10.8743   -9.90712   2.75578
   119   0   1   -11.1189   -12.3045   1.48368
   120   0   1   -9.30328   -12.1977   -0.545538
   121   0   1   -8.10699   -14.3339   -1.74182
   122   0   1   -6.1519   -13.312   -3.34144
   123   0   1   -8.29631   -14.3413   -4.67098
   124   0   1   -9.75905   -12.8072   -6.38345
   125   0   1   -10.1312   -10.521   -4.94796
   126   0   1   -11.3134   -12.3134   -6.62591
   127   0   1   -9.58942   -10.3113   -7.29326
   128   0   1   -10.2438   -11.2677   -4.82691
   129   0   1   -11.3359   -13.6506   -4.08225
   130   0   1   -9.33453   -13.8548   -2.24423
   131   0   1   -7.80769   -11.5977   -2.24423
   132   0   1   -8.37838   -13.5381   -0.418024
   133   0   1   -7.22396   -15.4887   1.09466
   134   0   1   -8.30489   -17.09   -0.826998
   135   0   1   -9.71785   -16.8882   1.4943
   136   0   1   -10.9436   -17.5568   -0.845806
   137   0   1   -11.2909   -19.4092   -2.81397
   138   0   1   -9.0417   -20.4588   -3.93859
   139   0   1   -8.32629   -22.4788   -5.6219
   140   0   1   -6.82344   -24.0335   -3.96358
   141   0   1   -5.40342   -25.2405   -5.95161
   142   0   1   -3.41906   -26.8377   -6.91959
   143   0   1   -0.8897   -26.1778   -7.68939
   144   0   1   0.126986   -27.4718   -5.51738
   145   0   1   2.03661   -27.8355   -3.60776
   146   0   1   3.33646   -29.7656   -2.18974
   147   0   1   4.92464   -29.7175   0.0240843
   148   0   1   5.67806   -27.1343   0.454608
   149   0   1   3.40443   -26.4626   1.79811
   150   0   1   2.59243   -23.9183   1.25678
   151   0   1   1.94432   -23.1524   -1.27677
   152   0   1   -0.777873   -23.1524   -1.15303
   153   0   1   -1.29444   -23.5398   -3.80043
   154   0   1   -3.45408   -24.4455   -2.40711
   155   0   1   -4.93958   -22.2941   -1.63875
   156   0   1   -7.31033   -21.2075   -2.429
   157   0   1   -6.95575   -18.8774   -1.06133
   158   0   1   -7.28533   -20.8549   0.784341
   159   0   1   -6.80564   -18.3498   1.74371
   160   0   1   -7.90604   -19.2852   -0.567113
   161   0   1   -8.79741   -16.9082   -1.55753
   162   0   1   -7.58412   -16.6527   -3.98411
   163   0   1   -7.26573   -19.0407   -2.71054
   164   0   1   -8.6693   -16.7175   -2.95254
   165   0   1   -10.3622   -17.6725   -1.04262
   166   0   1   -10.5351   -15.1357   -0.0625086
   167   0   1   -12.2579   -16.2976   1.70035
   168   0   1   -13.7736   -18.5381   1.37086
   169   0   1   -14.5935   -19.5221   3.77608
   170   0   1   -13.4042   -20.6597   5.94793
   171   0   1   -11.3697   -18.8564   6.13288
   172   0   1   -10.2794   -21.2792   6.73859
   173   0   1   -12.2761   -20.8409   8.54047
   174   0   1   -11.2854   -22.5391   10.4274
   175   0   1   -8.82496   -21.4626   9.96603
   176   0   1   -9.43192   -24.1181   10.0419
   177   0   1   -6.82051   -24.8145   9.69371
   178   0   1   -8.80853   -24.0747   11.4043
   179   0   1   -10.6327   -22.7651   12.9479
   180   0   1   -11.7765   -24.0082   15.0861
   181   0   1   -9.52943   -25.319   15.8976
   182   0   1   -11.1796   -23.8456   17.4888
   183   0   1   -12.4666   -21.7154   16.3792
   184   0   1   -10.3638   -20.0944   15.7659
   185   0   1   -11.3525   -17.7097   14.8935
   186   0   1   -12.8086   -15.5022   15.551
   187   0   1   -10.1068   -15.1727   15.4192
   188   0   1   -9.06585   -13.3648   13.6661
   189   0   1   -10.4845   -14.6166   11.705
   190   0   1   -8.40739   -15.0886   10.0055
   191   0   1   -6.64665   -14.1026   8.17432
   192   0   1   -8.48737   -15.9809   7.46057
   193   0   1   -8.39608   -13.8812   5.72604
   194   0   1   -7.21129   -12.6053   3.62988
   195   0   1   -9.03759   -10.7087   4.3323
   196   0   1   -11.3911   -11.6501   5.33253
   197   0   1   -13.7019   -12.0903   3.95704
   198   0   1   -15.2208   -9.8364   4.15303
   199   0   1   -15.6916   -10.5426   6.74248
   200   0   1   -16.2505   -9.42495   9.16408
   201   0   1   -17.9108   -7.38151   8.46165
   202   0   1   -17.7907   -9.18268   10.503
   203   0   1   -16.7227   -7.49631   12.358
   204   0   1   -18.383   -6.00199   10.7973
   205   0   1   -16.3356   -7.77998   10.5279
   206   0   1   -16.021   -6.2067   8.32527
   207   0   1   -16.9503   -4.0576   9.71929
   208   0   1   -15.0014   -4.0576   11.6239
   209   0   1   -13.9552   -5.96802   9.98637
   210   0   1   -16.1335   -6.07693   11.6201
   211   0   1   -18.7658   -5.87444   10.9451
   212   0   1   -20.268   -3.72851   11.6962
   213   0   1   -20.1926   -4.40689   9.05806
   214   0   1   -19.9481   -2.20669   7.46903
   215   0   1   -17.6237   -1.92776   8.86367
   216   0   1   -19.4456   -0.431255   10.23
   217   0   1   -17.5809   0.648268   8.56169
   218   0   1   -16.6919   -1.72242   7.55415
   219   0   1   -18.4759   -3.38478   6.33779
   220   0   1   -17.7923   -6.01423   6.12743
   221   0   1   -16.1424   -8.04488   5.36594
   222   0   1   -13.4345   -8.21412   5.6198
   223   0   1   -11.555   -9.15387   7.35473
   224   0   2   0.33652   55.894   10.6641
   225   0   2   0.33652   58.519   10.6641
   226   0   2   0.33652   61.144   10.6641
   227   0   2   0.33652   63.769   10.6641
   228   0   3   8.72691   73.123   -21.027
   229   0   3   8.72691   75.748   -21.027
   230   0   3   8.72691   78.373   -21.027
   231   0   3   8.72691   80.998   -21.027
   232   0   4   -62.7003   -3.98583   10.0914
   233   0   4   -62.7003   -1.36083   10.0914
   234   0   4   -62.7003   1.26417   10.0914
   235   0   4   -62.7003   3.88917   10.0914
   236   0   5   -79.4513   62.8131   -99.5018
   237   0   5   -79.4513   65.4381   -99.5018
   238   0   5   -79.4513   68.0631   -99.5018
   239   0   5   -79.4513   70.6881   -99.5018
   240   0   6   27.6683   20.7464   85.139
   241   0   6   27.6683   23.3714   85.139
   242   0   6   27.6683   25.9964   85.139
   243   0   6   27.6683   28.6214   85.139
   244   0   7   -86.5647   -92.7817   17.129
   245   0   7   -86.5647   -90.1567   17.129
   246   0   7   -86.5647   -87.5317   17.129
   247   0   7   -86.5647   -84.9067   17.129
   248   0   8   -17.676   -79.7631   21.5234
   249   0   8   -17.676   -77.1381   21.5234
   250   0   8   -17.676   -74.5131   21.5234
   251   0   8   -17.676   -71.8881   21.5234
   252   0   9   25.1953   57.0766   86.1233
   253   0   9   25.1953   59.7016   86.1233
   254   0   9   25.1953   62.3266   86.1233
   255   0   9   25.1953   64.9516   86.1233
   256   0   10   63.0171   -71.4252   -43.9212
   257   0   10   63.0171   -68.8002   -43.9212
   258   0   10   63.0171   -66.1752   -43.9212
   259   0   10   63.0171   -63.5502   -43.9212
   260   0   11   6.25742   -31.6252   75.3492
   261   0   11   6.25742   -29.0002   75.3492
   262   0   11   6.25742   -26.3752   75.3492
   263   0   11   6.25742   -23.7502   75.3492
   264   0   12   -35.0197   23.0754   28.6325
   265   0   12   -35.0197   25.7004   28.6325
   266   0   12   -35.0197   28.3254   28.6325
   267   0   12   -35.0197   30.9504   28.6325
   268   0   13   28.6763   -36.9971   -9.68105
   269   0   13   28.6763   -34.3721   -9.68105
   270   0   13   28.6763   -31.7471   -9.68105
   271   0   13   28.6763   -29.1221   -9.68105
   272   0   14   6.96001   -23.0756   -31.6034
   273   0   14   6.96001   -20.4506   -31.6034
   274   0   14   6.96001   -17.8256   -31.6034
   275   0   14   6.96001   -15.2006   -31.6034
   276   0   15   -6.06494   66.5422   -24.7643
   277   0   15   -6.06494   69.1672   -24.7643
   278   0   15   -6.06494   71.7922   -24.7643
   279   0   15   -6.06494   74.4172   -24.7643
   280   0   16   -87.1817   -63.1609   55.4157
   281   0   16   -87.1817   -60.5359   55.4157
   282   0   16   -87.1817   -57.9109   55.4157
   283   0   16   -87.1817   -55.2859   55.4157
   284   0   17   98.1339   -63.6144   32.1219
   285   0   17   98.1339   -60.9894   32.1219
   286   0   17   98.1339   -58.3644   32.1219
   287   0   17   98.1339   -55.7394   32.1219
   288   0   18   -20.8501   -27.4265   42.4243
   289   0   18   -20.8501   -24.8015   42.4243
   290   0   18   -20.8501   -22.1765   42.4243
   291   0   18   -20.8501   -19.5515   42.4243
   292   0   19   66.6313   71.8363   -48.0761
   293   0   19   66.6313   74.4613   -48.0761
   294   0   19   66.6313   77.0863   -48.0761
   295   0   19   66.6313   79.7113   -48.0761
   296   0   20   -59.6456   -63.8879   36.5405
   297   0   20   -59.6456   -61.2629   36.5405
   298   0   20   -59.6456   -58.6379   36.5405
   299   0   20   -59.6456   -56.0129   36.5405
   300   0   21   27.2645   34.2262   38.9099
   301   0   21   27.2645   36.8512   38.9099
   302   0   21   27.2645   39.4762   38.9099
   303   0   21   27.2645   42.1012   38.9099
   304   0   22   93.7589   5.62403   -76.8476
   305   0   22   93.7589   8.24903   -76.8476
   306   0   22   93.7589   10.874   -76.8476
   307   0   22   93.7589   13.499   -76.8476
   308   0   23   -53.6191   24.4024   -69.4145
   309   0   23   -53.6191   27.0274   -69.4145
   310   0   23   -53.6191   29.6524   -69.4145
   311   0   23   -53.6191   32.2774   -69.4145
   312   0   24   -26.1269   85.9837   -71.8943
   313   0   24   -26.1269   88.6087   -71.8943
   314   0   24   -26.1269   91.2337   -71.8943
   315   0   24   -26.1269   93.8587   -71.8943
   316   0   25   -29.8615   -82.9973   64.5573
   317   0   25   -29.8615   -80.3723   64.5573
   318   0   25   -29.8615   -77.7473   64.5573
   319   0   25   -29.8615   -75.1223   64.5573
   320   0   26   -54.0234   28.2212   -85.8893
   321   0   26   -54.0234   30.8462   -85.8893
   322   0   26   -54.0234   33.4712   -85.8893
   323   0   26   -54.0234   36.0962   -85.8893
   324   0   27   -13.373   40.7662   -41.6842
   325   0   27   -13.373   43.3912   -41.6842
   326   0   27   -13.373   46.0162   -41.6842
   327   0   27   -13.373   48.6412   -41.6842
   328   0   28   3.38625   -87.2415   -67.2637
   329   0   28   3.38625   -84.6165   -67.2637
   330   0   28   3.38625   -81.9915   -67.2637
   331   0   28   3.38625   -79.3665   -67.2637
   332   0   29   -77.6743   -71.9199   42.9892
   333   0   29   -77.6743   -69.2949   42.9892
   334   0   29   -77.6743   -66.6699   42.9892
   335   0   29   -77.6743   -64.0449   42.9892
   336   0   30   11.2689   -3.98878   -39.4449
   337   0   30   11.2689   -1.36378   -39.4449
   338   0   30   11.2689   1.26122   -39.4449
   339   0   30   11.2689   3.88622   -39.4449
   340   0   31   -17.5005   68.8278   -11.5634
   341   0   31   -17.5005   71.4528   -11.5634
   342   0   31   -17.5005   74.0778   -11.5634
   343   0   31   -17.5005   76.7028   -11.5634
   344   0   32   -41.095   -84.0033   -43.5778
   345   0   32   -41.095   -81.3783   -43.5778
   346   0   32   -41.095   -78.7533   -43.5778
   347   0   32   -41.095   -76.1283   -43.5778
   348   0   33   -43.245   -18.4926   -5.42255
   349   0   33   -43.245   -15.8676   -5.42255
   350   0   33   -43.245   -13.2426   -5.42255
   351   0   33   -43.245   -10.6176   -5.42255
   352   0   34   -86.4607   54.9373   -68.9402
   353   0   34   -86.4607   57.5623   -68.9402
   354   0   34   -86.4607   60.1873   -68.9402
   355   0   34   -86.4607   62.8123   -68.9402
   356   0   35   83.4367   -78.7782   -25.1593
   357   0   35   83.4367   -76.1532   -25.1593
   358   0   35   83.4367   -73.5282   -25.1593
   359   0   35   83.4367   -70.9032   -25.1593
   360   0   36   87.5313   -60.7369   -5.4679
   361   0   36   87.5313   -58.1119   -5.4679
   362   0   36   87.5313   -55.4869   -5.4679
   363   0   36   87.5313   -52.8619   -5.4679
   364   0   37   -26.771   59.3914   -8.04657
   365   0   37   -26.771   62.0164   -8.04657
   366   0   37   -26.771   64.6414   -8.04657
   367   0   37   -26.771   67.2664   -8.04657
   368   0   38   -29.329   67.3889   4.60336
   369   0   38   -29.329   70.0139   4.60336
   370   0   38   -29.329   72.6389   4.60336
   371   0   38   -29.329   75.2639   4.60336
   372   0   39   81.8678   -47.43   43.4944
   373   0   39   81.8678   -44.805   43.4944
   374   0   39   81.8678   -42.18   43.4944
   375   0   39   81.8678   -39.555   43.4944
   376   0   40   26.3785   -56.8439   25.3959
   377   0   40   26.3785   -54.2189   25.3959
   378   0   40   26.3785   -51.5939   25.3959
   379   0   40   26.3785   -48.9689   25.3959
   380   0   41   -33.5143   -74.3448   87.5517
   381   0   41   -33.5143   -71.7198   87.5517
   382   0   41   -33.5143   -69.0948   87.5517
   383   0   41   -33.5143   -66.4698   87.5517
   384   0   42   -19.0586   82.103   -94.4092
   385   0   42   -19.0586   84.728   -94.4092
   386   0   42   -19.0586   87.353   -94.4092
   387   0   42   -19.0586   89.978   -94.4092
   388   0   43   -60.9126   41.7463   29.824
   389   0   43   -60.9126   44.3713   29.824
   390   0   43   -60.9126   46.9963   29.824
   391   0   43   -60.9126   49.6213   29.824
   392   0   44   -81.4937   -64.3922   -39.6178
   393   0   44   -81.4937   -61.7672   -39.6178
   394   0   44   -81.4937   -59.1422   -39.6178
   395   0   44   -81.4937   -56.5172   -39.6178
   396   0   45   59.6898   6.21743   96.3573
   397   0   45   59.6898   8.84243   96.3573
   398   0   45   59.6898   11.4674   96.3573
   399   0   45   59.6898   14.0924   96.3573
   400   0   46   -88.2571   62.6595   -81.1408
   401   0   46   -88.2571   65.2845   -81.1408
   402   0   46   -88.2571   67.9095   -81.1408
   403   0   46   -88.2571   70.5345   -81.1408
   404   0   47   21.6787   -45.2927   -33.9841
   405   0   47   21.6787   -42.6677   -33.9841
   406   0   47   21.6787   -40.0427   -33.9841
   407   0   47   21.6787   -37.4177   -33.9841
   408   0   48   4.32065   17.2341   52.7249
   409   0   48   4.32065   19.8591   52.7249
   410   0   48   4.32065   22.4841   52.7249
   411   0   48   4.32065   25.1091   52.7249
   412   0   49   -79.6692   -0.178114   6.43802
   413   0   49   -79.6692   2.44689   6.43802
   414   0   49   -79.6692   5.07189   6.43802
   415   0   49   -79.6692   7.69689   6.43802
   416   0   50   -55.7834   47.8748   31.1046
   417   0   50   -55.7834   50.4998   31.1046
   418   0   50   -55.7834   53.1248   31.1046
   419   0   50   -55.7834   55.7498   31.1046
   420   0   51   59.9349   -74.8803   87.4978
   421   0   51   59.9349   -72.2553   87.4978
   422   0   51   59.9349   -69.6303   87.4978
   423   0   51   59.9349   -67.0053   87.4978
   424   0   52   60.9999   26.0314   -91.0374
   425   0   52   60.9999   28.6564   -91.0374
   426   0   52   60.9999   31.2814   -91.0374
   427   0   52   60.9999   33.9064   -91.0374
   428   0   53   -21.6061   65.912   -16.8864
   429   0   53   -21.6061   68.537   -16.8864
   430   0   53   -21.6061   71.162   -16.8864
   431   0   53   -21.6061   73.787   -16.8864
   432   0   54   19.6664   -67.5375   96.606
   433   0   54   19.6664   -64.9125   96.606
   434   0   54   19.6664   -62.2875   96.606
   435   0   54   19.6664   -59.6625   96.606
   436   0   55   -11.5655   19.2224   70.3434
   437   0   55   -11.5655   21.8474   70.3434
   438   0   55   -11.5655   24.4724   70.3434
   439   0   55   -11.5655   27.0974   70.3434
   440   0   56   -5.75917   5.57264   59.3717
   441   0   56   -5.75917   8.19764   59.3717
   442   0   56   -5.75917   10.8226   59.3717
   443   0   56   -5.75917   13.4476   59.3717
   444   0   57   -10.9075   78.25   -52.7343
   445   0   57   -10.9075   80.875   -52.7343
   446   0   57   -10.9075   83.5   -52.7343
   447   0   57   -10.9075   86.125   -52.7343

Bonds

   1   3   0   1
   2   3   1   0
   3   3   1   2
   4   3   2   1
   5   3   2   3
   6   3   3   2
   7   3   3   4
   8   3   4   3
   9   3   4   5
   10   3   5   4
   11   3   5   6
   12   3   6   5
   13   3   6   7
   14   3   7   6
   15   3   7   8
   16   3   8   7
   17   3   8   9
   18   3   9   8
   19   3   9   10
   20   3   10   9
   21   3   10   11
   22   3   11   10
   23   3   11   12
   24   3   12   11
   25   3   12   13
   26   3   13   12
   27   3   13   14
   28   3   14   13
   29   3   14   15
   30   3   15   14
   31   3   15   16
   32   3   16   15
   33   3   16   17
   34   3   17   16
   35   3   17   18
   36   3   18   17
   37   3   18   19
   38   3   19   18
   39   3   19   20
   40   3   20   19
   41   3   20   21
   42   3   21   20
   43   3   21   22
   44   3   22   21
   45   3   22   23
   46   3   23   22
   47   3   23   24
   48   3   24   23
   49   3   24   25
   50   3   25   24
   51   3   25   26
   52   3   26   25
   53   3   26   27
   54   3   27   26
   55   3   27   28
   56   3   28   27
   57   3   28   29
   58   3   29   28
   59   3   29   30
   60   3   30   29
   61   3   30   31
   62   3   31   30
   63   3   31   32
   64   3   32   31
   65   3   32   33
   66   3   33   32
   67   3   33   34
   68   3   34   33
   69   3   34   35
   70   3   35   34
   71   3   35   36
   72   3   36   35
   73   3   36   37
   74   3   37   36
   75   3   37   38
   76   3   38   37
   77   3   38   39
   78   3   39   38
   79   3   39   40
   80   3   40   39
   81   3   40   41
   82   3   41   40
   83   3   41   42
   84   3   42   41
   85   3   42   43
   86   3   43   42
   87   3   43   44
   88   3   44   43
   89   3   44   45
   90   3   45   44
   91   3   45   46
   92   3   46   45
   93   3   46   47
   94   3   47   46
   95   3   47   48
   96   3   48   47
   97   3   48   49
   98   3   49   48
   99   3   49   50
   100   3   50   49
   101   3   50   51
   102   3   51   50
   103   3   51   52
   104   3   52   51
   105   3   52   53
   106   3   53   52
   107   3   53   54
   108   3   54   53
   109   3   54   55
   110   3   55   54
   111   3   55   56
   112   3   56   55
   113   3   56   57
   114   3   57   56
   115   3   57   58
   116   3   58   57
   117   3   58   59
   118   3   59   58
   119   3   59   60
   120   3   60   59
   121   3   60   61
   122   3   61   60
   123   3   61   62
   124   3   62   61
   125   3   62   63
   126   3   63   62
   127   3   63   64
   128   3   64   63
   129   3   64   65
   130   3   65   64
   131   3   65   66
   132   3   66   65
   133   3   66   67
   134   3   67   66
   135   3   67   68
   136   3   68   67
   137   3   68   69
   138   3   69   68
   139   3   69   70
   140   3   70   69
   141   3   70   71
   142   3   71   70
   143   3   71   72
   144   3   72   71
   145   3   72   73
   146   3   73   72
   147   3   73   74
   148   3   74   73
   149   3   74   75
   150   3   75   74
   151   3   75   76
   152   3   76   75
   153   3   76   77
   154   3   77   76
   155   3   77   78
   156   3   78   77
   157   3   78   79
   158   3   79   78
   159   3   79   80
   160   3   80   79
   161   3   80   81
   162   3   81   80
   163   3   81   82
   164   3   82   81
   165   3   82   83
   166   3   83   82
   167   3   83   84
   168   3   84   83
   169   3   84   85
   170   3   85   84
   171   3   85   86
   172   3   86   85
   173   3   86   87
   174   3   87   86
   175   3   87   88
   176   3   88   87
   177   3   88   89
   178   3   89   88
   179   3   89   90
   180   3   90   89
   181   3   90   91
   182   3   91   90
   183   3   91   92
   184   3   92   91
   185   3   92   93
   186   3   93   92
   187   3   93   94
   188   3   94   93
   189   3   94   95
   190   3   95   94
   191   3   95   96
   192   3   96   95
   193   3   96   97
   194   3   97   96
   195   3   97   98
   196   3   98   97
   197   3   98   99
   198   3   99   98
   199   3   99   100
   200   3   100   99
   201   3   100   101
   202   3   101   100
   203   3   101   102
   204   3   102   101
   205   3   102   103
   206   3   103   102
   207   3   103   104
   208   3   104   103
   209   3   104   105
   210   3   105   104
   211   3   105   106
   212   3   106   105
   213   3   106   107
   214   3   107   106
   215   3   107   108
   216   3   108   107
   217   3   108   109
   218   3   109   108
   219   3   109   110
   220   3   110   109
   221   3   110   111
   222   3   111   110
   223   3   111   112
   224   3   112   111
   225   3   112   113
   226   3   113   112
   227   3   113   114
   228   3   114   113
   229   3   114   115
   230   3   115   114
   231   3   115   116
   232   3   116   115
   233   3   116   117
   234   3   117   116
   235   3   117   118
   236   3   118   117
   237   3   118   119
   238   3   119   118
   239   3   119   120
   240   3   120   119
   241   3   120   121
   242   3   121   120
   243   3   121   122
   244   3   122   121
   245   3   122   123
   246   3   123   122
   247   3   123   124
   248   3   124   123
   249   3   124   125
   250   3   125   124
   251   3   125   126
   252   3   126   125
   253   3   126   127
   254   3   127   126
   255   3   127   128
   256   3   128   127
   257   3   128   129
   258   3   129   128
   259   3   129   130
   260   3   130   129
   261   3   130   131
   262   3   131   130
   263   3   131   132
   264   3   132   131
   265   3   132   133
   266   3   133   132
   267   3   133   134
   268   3   134   133
   269   3   134   135
   270   3   135   134
   271   3   135   136
   272   3   136   135
   273   3   136   137
   274   3   137   136
   275   3   137   138
   276   3   138   137
   277   3   138   139
   278   3   139   138
   279   3   139   140
   280   3   140   139
   281   3   140   141
   282   3   141   140
   283   3   141   142
   284   3   142   141
   285   3   142   143
   286   3   143   142
   287   3   143   144
   288   3   144   143
   289   3   144   145
   290   3   145   144
   291   3   145   146
   292   3   146   145
   293   3   146   147
   294   3   147   146
   295   3   147   148
   296   3   148   147
   297   3   148   149
   298   3   149   148
   299   3   149   150
   300   3   150   149
   301   3   150   151
   302   3   151   150
   303   3   151   152
   304   3   152   151
   305   3   152   153
   306   3   153   152
   307   3   153   154
   308   3   154   153
   309   3   154   155
   310   3   155   154
   311   3   155   156
   312   3   156   155
   313   3   156   157
   314   3   157   156
   315   3   157   158
   316   3   158   157
   317   3   158   159
   318   3   159   158
   319   3   159   160
   320   3   160   159
   321   3   160   161
   322   3   161   160
   323   3   161   162
   324   3   162   161
   325   3   162   163
   326   3   163   162
   327   3   163   164
   328   3   164   163
   329   3   164   165
   330   3   165   164
   331   3   165   166
   332   3   166   165
   333   3   166   167
   334   3   167   166
   335   3   167   168
   336   3   168   167
   337   3   168   169
   338   3   169   168
   339   3   169   170
   340   3   170   169
   341   3   170   171
   342   3   171   170
   343   3   171   172
   344   3   172   171
   345   3   172   173
   346   3   173   172
   347   3   173   174
   348   3   174   173
   349   3   174   175
   350   3   175   174
   351   3   175   176
   352   3   176   175
   353   3   176   177
   354   3   177   176
   355   3   177   178
   356   3   178   177
   357   3   178   179
   358   3   179   178
   359   3   179   180
   360   3   180   179
   361   3   180   181
   362   3   181   180
   363   3   181   182
   364   3   182   181
   365   3   182   183
   366   3   183   182
   367   3   183   184
   368   3   184   183
   369   3   184   185
   370   3   185   184
   371   3   185   186
   372   3   186   185
   373   3   186   187
   374   3   187   186
   375   3   187   188
   376   3   188   187
   377   3   188   189
   378   3   189   188
   379   3   189   190
   380   3   190   189
   381   3   190   191
   382   3   191   190
   383   3   191   192
   384   3   192   191
   385   3   192   193
   386   3   193   192
   387   3   193   194
   388   3   194   193
   389   3   194   195
   390   3   195   194
   391   3   195   196
   392   3   196   195
   393   3   196   197
   394   3   197   196
   395   3   197   198
   396   3   198   197
   397   3   198   199
   398   3   199   198
   399   3   199   200
   400   3   200   199
   401   3   200   201
   402   3   201   200
   403   3   201   202
   404   3   202   201
   405   3   202   203
   406   3   203   202
   407   3   203   204