# Atom and bond counts
1024 atoms
1810 bonds
0 angles
0 dihedrals

119 atom types
3 bond types
0 angle types
0 dihedral types

# periodic box information
-100 100 xlo xhi
-100 100 ylo yhi
-100 100 zlo zhi

Atoms

   0   0   1   0   0   0
   1   0   1   -1.95498   -1.71657   -0.810601
   2   0   1   -3.92613   -3.34491   -1.75332
   3   0   1   -5.85817   -1.74597   -0.687369
   4   0   1   -3.39518   -2.90207   -0.536574
   5   0   1   -3.99388   -1.50509   -2.79835
   6   0   1   -5.11935   -2.55017   -0.547406
   7   0   1   -2.50479   -2.61394   0.217834
   8   0   1   -1.5616   -0.806178   -1.58993
   9   0   1   -0.1496   -2.50058   0.0103386
   10   0   1   -0.578787   -1.42761   2.47816
   11   0   1   -2.21095   0.242503   1.07375
   12   0   1   -0.182664   0.172562   2.89221
   13   0   1   1.23777   2.01386   4.31264
   14   0   1   3.20095   3.77671   4.99374
   15   0   1   3.67502   2.35449   7.2693
   16   0   1   5.22116   0.847007   5.6072
   17   0   1   3.35924   -1.11291   5.26422
   18   0   1   1.41557   -2.91774   5.88897
   19   0   1   1.0564   -3.63608   3.28501
   20   0   1   0.391429   -6.19367   2.62003
   21   0   1   -0.94655   -4.66455   4.43586
   22   0   1   -1.98664   -7.18265   4.4906
   23   0   1   -2.72734   -9.5282   5.66338
   24   0   1   -2.18923   -11.5564   3.92489
   25   0   1   -4.00674   -11.0303   5.88588
   26   0   1   -5.36374   -9.19836   4.39318
   27   0   1   -3.78991   -8.2872   6.42259
   28   0   1   -2.42518   -6.21657   7.55202
   29   0   1   -0.0891955   -5.66985   8.84427
   30   0   1   -1.95375   -6.17837   6.92321
   31   0   1   -0.378502   -5.31198   4.87539
   32   0   1   -3.02241   -5.77855   4.40882
   33   0   1   -2.38222   -6.20535   1.7947
   34   0   1   -1.03265   -4.20276   3.0572
   35   0   1   -0.0578164   -2.74052   5.13979
   36   0   1   2.49562   -3.16609   4.28864
   37   0   1   5.02257   -3.51463   3.33015
   38   0   1   5.2749   -0.802073   3.26706
   39   0   1   5.64271   0.914376   1.1828
   40   0   1   3.42902   2.49558   1.02468
   41   0   1   4.44722   1.32465   3.26473
   42   0   1   2.77697   2.55277   1.49623
   43   0   1   3.80718   0.249957   0.466019
   44   0   1   5.50296   -0.880564   2.27485
   45   0   1   6.69643   1.38074   1.33264
   46   0   1   7.49384   3.16542   -0.565956
   47   0   1   5.0069   4.13256   -1.11861
   48   0   1   6.79626   3.65891   -3.11848
   49   0   1   4.66198   5.30812   -2.73043
   50   0   1   3.12899   5.07228   -0.489904
   51   0   1   2.41512   6.71   1.56774
   52   0   1   3.7103   7.3235   -0.74996
   53   0   1   5.9702   8.84547   -0.70384
   54   0   1   4.35224   7.48848   -2.42617
   55   0   1   3.63023   8.73997   -4.73661
   56   0   1   1.97493   8.73997   -6.90123
   57   0   1   4.1126   8.20555   -8.50448
   58   0   1   1.92073   7.54799   -9.984
   59   0   1   0.86042   9.29981   -11.7819
   60   0   1   0.649907   11.1944   -9.83467
   61   0   1   0.782676   8.47266   -9.83467
   62   0   1   1.43389   8.93781   -7.22983
   63   0   1   3.25274   10.8577   -6.57302
   64   0   1   4.74705   9.19735   -5.01229
   65   0   1   6.38574   10.4849   -6.76803
   66   0   1   8.39189   10.7585   -8.5918
   67   0   1   7.67195   13.0211   -9.92883
   68   0   1   5.99768   14.2671   -8.17669
   69   0   1   6.93387   15.8274   -6.14826
   70   0   1   6.1634   14.405   -8.34114
   71   0   1   7.61911   14.5582   -6.04265
   72   0   1   6.26859   16.0776   -7.85741
   73   0   1   8.07822   17.388   -6.29739
   74   0   1   8.15377   17.2369   -3.57763
   75   0   1   6.06371   15.5026   -3.79998
   76   0   1   4.41766   16.4902   -1.86587
   77   0   1   4.68229   19.0835   -2.65975
   78   0   1   4.82329   21.6921   -1.88425
   79   0   1   3.46511   19.4608   -2.66035
   80   0   1   2.24241   17.1173   -1.99805
   81   0   1   -0.294141   16.962   -1.01449
   82   0   1   -0.755885   15.6922   1.35195
   83   0   1   -2.13466   13.8801   2.84891
   84   0   1   -3.57026   14.4418   5.09593
   85   0   1   -2.7163   12.862   3.04642
   86   0   1   -5.08095   11.6324   2.4789
   87   0   1   -3.29021   12.3487   4.40394
   88   0   1   -5.24596   13.1092   6.14239
   89   0   1   -6.63131   11.2477   4.71375
   90   0   1   -4.96294   9.97826   2.97284
   91   0   1   -4.23139   8.4664   5.11871
   92   0   1   -3.64672   7.3945   2.68256
   93   0   1   -4.99029   8.78605   0.76318
   94   0   1   -6.90526   10.4994   -0.14391
   95   0   1   -8.66832   12.3213   0.855161
   96   0   1   -7.01347   10.3482   -0.0359121
   97   0   1   -4.94547   10.6713   -1.78079
   98   0   1   -2.40575   10.2296   -0.897407
   99   0   1   -3.89548   8.9342   -2.77576
   100   0   1   -1.62858   8.59417   -4.24925
   101   0   1   -3.53588   10.2631   -3.24792
   102   0   1   -1.91689   9.55475   -5.32224
   103   0   1   -0.323048   9.43214   -7.5291
   104   0   1   -0.18766   11.5081   -5.76906
   105   0   1   -2.1551   13.1945   -4.92588
   106   0   1   3.72387e-05   14.7509   -5.52452
   107   0   1   2.39073   15.0561   -6.79617
   108   0   1   1.17594   16.5746   -8.70512
   109   0   1   1.32093   18.8462   -7.20688
   110   0   1   3.29461   20.5731   -7.94701
   111   0   1   5.47425   18.9384   -7.99655
   112   0   1   3.26969   17.932   -9.2426
   113   0   1   5.45573   16.3162   -9.43269
   114   0   1   3.21691   14.9455   -8.70164
   115   0   1   1.03227   13.8237   -9.88253
   116   0   1   -0.737069   15.4369   -8.58154
   117   0   1   -2.83521   17.1496   -8.28181
   118   0   1   -1.27544   15.6608   -9.94793
   119   0   1   -0.53217   17.937   -8.64722
   120   0   1   -2.54519   19.2357   -9.94594
   121   0   1   -4.13835   17.3529   -11.1046
   122   0   1   -3.26035   15.7616   -9.07424
   123   0   1   -5.19153   14.7724   -10.7228
   124   0   1   -2.69181   15.8249   -10.9859
   125   0   1   -1.39619   14.4214   -12.9294
   126   0   1   -3.25776   15.3294   -14.7001
   127   0   1   -1.90817   13.4608   -13.2467
   128   0   1   -4.33747   12.2461   -13.0259
   129   0   1   -2.3909   12.1633   -11.1207
   130   0   1   -4.33905   10.7955   -12.4471
   131   0   1   -2.38995   11.8124   -14.0573
   132   0   1   0.16575   11.9866   -14.9866
   133   0   1   -0.646406   9.4994   -14.2252
   134   0   1   -0.886213   6.80157   -14.525
   135   0   1   -1.13642   8.76154   -16.4015
   136   0   1   -0.338729   10.7115   -18.1299
   137   0   1   1.57985   8.79288   -17.8774
   138   0   1   -0.640539   7.55933   -16.8906
   139   0   1   0.632736   9.39851   -18.4468
   140   0   1   -0.522287   11.8661   -18.3943
   141   0   1   -1.27161   13.8835   -20.0659
   142   0   1   -1.32677   12.8907   -22.603
   143   0   1   -2.52553   13.3811   -20.2055
   144   0   1   -3.87966   12.5686   -17.9847
   145   0   1   -3.95987   15.2158   -18.6264
   146   0   1   -4.45427   13.0899   -16.9949
   147   0   1   -2.6311   14.1258   -18.7352
   148   0   1   -2.44858   12.0571   -16.9708
   149   0   1   -2.96632   13.6967   -14.8567
   150   0   1   -1.27815   11.5583   -14.913
   151   0   1   0.563638   12.3591   -13.0712
   152   0   1   2.76151   10.9604   -13.8704
   153   0   1   2.9947   13.6033   -14.4922
   154   0   1   5.30911   15.0016   -14.1547
   155   0   1   5.44888   17.1447   -15.832
   156   0   1   6.41473   18.9649   -14.0489
   157   0   1   3.93631   20.0964   -14.1027
   158   0   1   4.40206   21.7477   -16.2198
   159   0   1   6.29658   19.79   -16.2829
   160   0   1   8.95521   19.5801   -15.7232
   161   0   1   7.34444   20.7007   -17.6141
   162   0   1   5.10026   20.0274   -19.0055
   163   0   1   6.53423   21.5108   -20.7856
   164   0   1   6.59561   22.186   -18.1463
   165   0   1   7.88162   24.5008   -18.7893
   166   0   1   9.49072   25.7567   -16.984
   167   0   1   7.35502   26.91   -18.2227
   168   0   1   7.06118   28.9669   -19.9858
   169   0   1   4.59079   29.812   -19.2056
   170   0   1   6.31751   28.4467   -17.5994
   171   0   1   4.69409   30.491   -16.8177
   172   0   1   3.9181   32.9853   -16.0418
   173   0   1   1.49557   32.2931   -15.0035
   174   0   1   2.67799   32.1242   -17.4528
   175   0   1   4.08924   31.3402   -15.2575
   176   0   1   5.57508   29.6369   -13.7354
   177   0   1   3.69049   29.5549   -11.7689
   178   0   1   2.29995   27.2374   -11.4213
   179   0   1   4.0976   27.2873   -13.4686
   180   0   1   3.94533   26.4498   -10.88
   181   0   1   2.92588   24.7677   -8.994
   182   0   1   0.946385   22.8982   -9.10397
   183   0   1   1.26523   25.1301   -7.57349
   184   0   1   -0.177412   23.2066   -6.29114
   185   0   1   -2.25219   23.3103   -8.0547
   186   0   1   -3.82954   22.4945   -10.1216
   187   0   1   -6.15275   21.4619   -9.14066
   188   0   1   -8.31074   20.7178   -10.6289
   189   0   1   -8.66588   19.1958   -12.8612
   190   0   1   -7.74253   16.9974   -11.5421
   191   0   1   -7.34599   14.3537   -12.0709
   192   0   1   -7.28256   17.0175   -11.5
   193   0   1   -8.38558   18.5933   -13.4303
   194   0   1   -9.95288   17.5297   -15.3895
   195   0   1   -12.1565   19.1255   -15.2375
   196   0   1   -13.732   17.235   -14.0672
   197   0   1   -11.7237   16.2745   -12.4955
   198   0   1   -13.5526   16.0132   -14.4986
   199   0   1   -14.8619   14.1312   -13.0257
   200   0   1   -16.158   14.8291   -10.7325
   201   0   1   -15.7766   12.9695   -12.6875
   202   0   1   -17.8801   12.9695   -14.4198
   203   0   1   -18.1512   10.8003   -12.7929
   204   0   1   -15.8081   12.1569   -13.1012
   205   0   1   -17.6622   10.3028   -12.3596
   206   0   1   -17.8918   12.9436   -12.9911
   207   0   1   -16.8304   14.8542   -11.3636
   208   0   1   -16.434   12.6738   -12.9493
   209   0   1   -14.2781   13.125   -14.5537
   210   0   1   -14.2027   15.161   -12.744
   211   0   1   -12.9168   13.637   -10.8867
   212   0   1   -15.3673   12.913   -9.93987
   213   0   1   -13.7252   14.4153   -11.5121
   214   0   1   -14.4118   12.3961   -13.2083
   215   0   1   -14.4705   12.0437   -15.9098
   216   0   1   -12.4334   10.3101   -15.3897
   217   0   1   -13.6859   11.4966   -13.2803
   218   0   1   -11.657   12.0038   -15.0274
   219   0   1   -9.83016   10.5741   -13.5977
   220   0   1   -11.0288   11.9645   -11.5839
   221   0   1   -12.3852   9.97234   -10.3123
   222   0   1   -14.4971   10.197   -8.60482
   223   0   1   -12.2453   9.76397   -10.0771
   224   0   1   -13.4671   11.7551   -8.67427
   225   0   1   -14.895   10.1729   -6.97625
   226   0   1   -17.1086   9.50365   -5.53483
   227   0   1   -15.633   10.0939   -3.32132
   228   0   1   -17.2008   9.20774   -5.36635
   229   0   1   -16.5277   6.61133   -4.88554
   230   0   1   -18.2431   5.56536   -6.72645
   231   0   1   -19.7536   3.87356   -5.21592
   232   0   1   -22.265   2.83945   -5.43751
   233   0   1   -22.3236   3.71853   -8.01615
   234   0   1   -21.2028   1.40219   -7.11951
   235   0   1   -19.8615   3.03089   -5.395
   236   0   1   -18.3371   1.03007   -6.44305
   237   0   1   -17.0453   -0.261718   -4.42112
   238   0   1   -14.875   0.0883318   -2.81089
   239   0   1   -16.6744   0.388231   -4.83521
   240   0   1   -15.0324   -1.64266   -4.05742
   241   0   1   -13.2186   -2.30222   -2.13369
   242   0   1   -13.6562   -4.34435   -0.383304
   243   0   1   -13.5332   -5.20519   2.19922
   244   0   1   -15.5817   -6.94858   1.76338
   245   0   1   -18.0065   -5.73616   2.03893
   246   0   1   -19.3011   -6.89686   -0.0592551
   247   0   1   -21.181   -7.31983   1.86761
   248   0   1   -22.5948   -6.35586   3.98834
   249   0   1   -21.6792   -6.23378   1.42467
   250   0   1   -21.744   -3.83726   0.129254
   251   0   1   -24.3226   -3.13888   -0.407959
   252   0   1   -24.0156   -1.6654   -2.67958
   253   0   1   -22.2383   -3.6205   -3.34609
   254   0   1   -22.1951   -1.54874   -1.57646
   255   0   1   -20.4284   0.328447   -2.45984
   256   0   1   -20.8539   -0.5227   0.093602
   257   0   1   -19.7895   -2.04993   2.08362
   258   0   1   -21.3717   0.137234   2.45591
   259   0   1   -22.0249   1.71584   0.332953
   260   0   1   -23.5987   -0.191749   1.47751
   261   0   1   -22.7572   -2.20188   3.11366
   262   0   1   -24.1237   -4.40577   3.95114
   263   0   1   -25.9077   -2.58028   2.9969
   264   0   1   -23.8024   -3.45749   1.50565
   265   0   1   -25.2693   -2.46515   3.57663
   266   0   1   -23.9299   -4.25107   5.13931
   267   0   1   -25.8792   -6.13952   5.38298
   268   0   1   -28.3054   -4.92642   5.12303
   269   0   1   -30.0699   -2.85051   5.17493
   270   0   1   -32.0241   -4.58135   5.9566
   271   0   1   -33.1642   -6.6633   7.29499
   272   0   1   -32.5703   -5.35663   4.97864
   273   0   1   -34.7035   -6.61914   3.84674
   274   0   1   -33.7156   -4.64344   5.44249
   275   0   1   -33.2491   -4.17687   2.79858
   276   0   1   -31.8273   -3.6503   5.06286
   277   0   1   -33.327   -5.4792   6.41625
   278   0   1   -33.3899   -6.35953   8.99436
   279   0   1   -31.0459   -7.28621   7.95866
   280   0   1   -28.7139   -5.8773   8.00724
   281   0   1   -30.7414   -4.06101   8.13396
   282   0   1   -29.0284   -5.90929   9.17079
   283   0   1   -31.2003   -4.36606   8.59923
   284   0   1   -31.7296   -5.65137   6.25541
   285   0   1   -33.3515   -4.02941   4.78433
   286   0   1   -33.2419   -5.18084   7.25168
   287   0   1   -31.7925   -3.48987   5.68149
   288   0   1   -30.1478   -2.69105   7.70205
   289   0   1   -27.9549   -1.07859   7.57305
   290   0   1   -30.3083   -2.4234   7.85322
   291   0   1   -29.9446   -0.241282   9.44435
   292   0   1   -32.48   0.671444   9.85001
   293   0   1   -33.224   -1.44615   11.3953
   294   0   1   -34.7375   0.0673586   9.7088
   295   0   1   -33.9339   -2.0221   8.1551
   296   0   1   -31.9978   -3.80928   7.46009
   297   0   1   -29.8463   -2.73358   6.17949
   298   0   1   -27.9046   -3.3514   7.98881
   299   0   1   -28.472   -1.30029   6.28683
   300   0   1   -30.3752   -3.01935   5.36591
   301   0   1   -28.7514   -0.97804   4.57722
   302   0   1   -27.8406   -3.40683   3.74232
   303   0   1   -29.3895   -4.95573   5.36326
   304   0   1   -29.3318   -3.51181   3.05299
   305   0   1   -29.8431   -1.27495   1.58305
   306   0   1   -30.1152   1.39182   1.09324
   307   0   1   -28.4716   1.26033   -1.07631
   308   0   1   -26.6212   0.0600762   -2.67664
   309   0   1   -26.0869   2.67821   -3.21096
   310   0   1   -24.1501   3.22448   -1.37352
   311   0   1   -21.7734   4.33361   -0.634099
   312   0   1   -19.815   5.27367   -2.2792
   313   0   1   -19.2498   7.93818   -2.35995
   314   0   1   -21.2789   6.52658   -1.21302
   315   0   1   -19.6955   4.78987   0.166136
   316   0   1   -20.1536   7.18223   1.38777
   317   0   1   -18.4309   6.06965   -0.406707
   318   0   1   -19.2429   6.61099   2.13755
   319   0   1   -16.6593   6.07907   2.82144
   320   0   1   -16.6041   6.90741   0.225981
   321   0   1   -16.132   4.83026   1.92546
   322   0   1   -14.6433   3.10017   0.436774
   323   0   1   -15.0159   3.39827   3.11967
   324   0   1   -16.5963   1.30661   2.37597
   325   0   1   -14.2111   1.40397   3.69023
   326   0   1   -12.014   3.01517   3.73905
   327   0   1   -9.99684   3.97792   5.29779
   328   0   1   -11.947   2.36397   4.28907
   329   0   1   -12.5632   4.82855   3.30324
   330   0   1   -14.6813   6.25503   4.25423
   331   0   1   -14.14   8.79929   5.06623
   332   0   1   -12.3243   10.6562   5.89151
   333   0   1   -14.8951   10.2277   6.68722
   334   0   1   -16.8503   8.66357   5.61188
   335   0   1   -18.833   9.98539   4.29006
   336   0   1   -20.4386   11.356   6.01314
   337   0   1   -22.7244   12.5243   6.92745
   338   0   1   -22.676   10.107   8.18444
   339   0   1   -21.5911   7.73048   7.40948
   340   0   1   -23.6922   9.01447   6.24222
   341   0   1   -22.3088   7.35438   7.90231
   342   0   1   -21.5701   9.57032   6.49888
   343   0   1   -20.2568   8.32264   4.46319
   344   0   1   -21.345   10.81   4.69638
   345   0   1   -22.8719   12.1879   6.48397
   346   0   1   -24.0394   12.5433   8.92044
   347   0   1   -26.0419   10.7228   8.60186
   348   0   1   -27.7319   12.7508   9.27785
   349   0   1   -29.3855   11.3978   10.9691
   350   0   1   -31.0004   10.1142   9.18861
   351   0   1   -32.5156   8.59899   7.5051
   352   0   1   -29.8088   8.33705   7.33047
   353   0   1   -28.329   10.0824   5.85072
   354   0   1   -26.967   8.34456   4.25378
   355   0   1   -28.2791   10.1066   2.64167
   356   0   1   -29.7539   11.7973   4.18841
   357   0   1   -30.7117   13.8137   5.75115
   358   0   1   -31.4098   16.0474   7.14721
   359   0   1   -33.1529   17.6565   5.80633
   360   0   1   -31.9733   15.3465   6.64186
   361   0   1   -34.1256   15.6212   4.99329
   362   0   1   -35.7894   17.7191   5.49967
   363   0   1   -34.9857   16.3794   7.73238
   364   0   1   -33.0457   15.4841   6.04111
   365   0   1   -34.978   13.6437   5.48901
   366   0   1   -34.8006   11.7508   3.53688
   367   0   1   -34.5408   9.56828   5.14776
   368   0   1   -33.3379   7.38127   6.24126
   369   0   1   -33.5365   7.51368   3.52674
   370   0   1   -35.6644   8.87552   4.54812
   371   0   1   -35.7122   7.48783   2.20341
   372   0   1   -37.808   6.23037   0.998341
   373   0   1   -35.7942   5.74218   2.76805
   374   0   1   -36.8808   7.44001   0.934396
   375   0   1   -36.1297   9.69347   2.26979
   376   0   1   -34.6416   11.3882   3.79919
   377   0   1   -32.0299   11.9956   3.31331
   378   0   1   -34.2274   11.3241   1.84835
   379   0   1   -33.5212   13.9136   2.31916
   380   0   1   -32.3445   16.3361   2.73445
   381   0   1   -34.1716   16.4323   0.715025
   382   0   1   -35.2412   14.1286   -0.272264
   383   0   1   -33.0923   12.4709   -0.517844
   384   0   1   -34.5498   14.7722   -0.441137
   385   0   1   -34.3725   17.4907   -0.382037
   386   0   1   -36.6959   18.8989   -0.593256
   387   0   1   -36.9513   16.4723   -1.80655
   388   0   1   -38.6749   14.5158   -1.01464
   389   0   1   -36.0745   14.9059   -0.299527
   390   0   1   -37.5655   15.3532   -2.53611
   391   0   1   -40.0304   14.5316   -3.35773
   392   0   1   -40.9311   16.8179   -4.53552
   393   0   1   -43.4186   16.3204   -3.54049
   394   0   1   -44.8879   16.4379   -1.24851
   395   0   1   -43.9009   18.9052   -1.85164
   396   0   1   -42.408   19.3318   0.38775
   397   0   1   -41.3813   17.6891   2.30425
   398   0   1   -41.99   17.6891   4.9604
   399   0   1   -40.4708   16.0128   6.47955
   400   0   1   -42.2112   15.2487   8.43219
   401   0   1   -42.6091   16.8899   6.29359
   402   0   1   -41.9029   18.067   3.93955
   403   0   1   -40.6964   17.6831   6.35256
   404   0   1   -42.4065   15.6994   7.105
   405   0   1   -44.6734   14.3896   6.34935
   406   0   1   -46.4566   14.7751   4.32519
   407   0   1   -44.2834   13.3922   5.21422
   408   0   1   -42.4858   12.6731   3.29669
   409   0   1   -40.5802   13.5287   5.04669
   410   0   1   -38.6891   14.4742   6.76584
   411   0   1   -37.9417   11.858   6.91534
   412   0   1   -39.9727   12.6889   8.53094
   413   0   1   -40.886   11.1027   6.51214
   414   0   1   -42.6525   12.4654   8.07676
   415   0   1   -44.3862   13.9102   9.60406
   416   0   1   -43.33   12.2204   7.74531
   417   0   1   -42.2505   13.2999   10.0025
   418   0   1   -43.1788   11.6496   11.9622
   419   0   1   -45.3075   13.0971   12.8562
   420   0   1   -45.7395   10.9909   11.1821
   421   0   1   -47.7864   12.7765   10.9643
   422   0   1   -49.8136   11.0793   11.6243
   423   0   1   -49.7743   9.15265   9.69767
   424   0   1   -47.6312   9.56086   8.06484
   425   0   1   -46.2895   9.22543   10.4128
   426   0   1   -44.7619   8.04278   12.3346
   427   0   1   -47.1259   8.64893   13.5469
   428   0   1   -45.9858   6.31691   14.3761
   429   0   1   -47.1592   7.49029   16.5376
   430   0   1   -44.5206   7.79474   17.1465
   431   0   1   -44.7186   6.47486   14.7707
   432   0   1   -45.3416   9.02347   14.0344
   433   0   1   -45.1488   6.32436   13.7131
   434   0   1   -45.8661   4.43314   15.5391
   435   0   1   -48.1011   3.15599   14.6451
   436   0   1   -47.428   5.36774   16.0876
   437   0   1   -47.428   8.0717   15.7496
   438   0   1   -45.6303   9.59584   17.1174
   439   0   1   -46.2504   7.00288   17.6811
   440   0   1   -44.6251   5.57667   16.0227
   441   0   1   -43.5786   5.22783   13.531
   442   0   1   -42.9344   3.37582   15.4232
   443   0   1   -44.8197   2.46808   13.6776
   444   0   1   -42.0982   2.56528   13.7748
   445   0   1   -43.9939   0.622162   14.0117
   446   0   1   -46.4587   -0.537724   14.0842
   447   0   1   -47.0332   0.715803   11.7339
   448   0   1   -45.0785   0.343466   13.5956
   449   0   1   -43.1559   2.26598   13.7787
   450   0   1   -45.161   1.62801   15.5103
   451   0   1   -44.7412   3.09722   13.254
   452   0   1   -42.3586   3.87155   14.3261
   453   0   1   -39.7213   3.99422   15.0008
   454   0   1   -40.5383   5.83245   16.839
   455   0   1   -40.1421   7.53042   14.7449
   456   0   1   -41.5481   8.28363   16.9543
   457   0   1   -43.6114   6.50497   16.8831
   458   0   1   -45.4772   6.21037   14.9191
   459   0   1   -46.7828   4.70395   16.777
   460   0   1   -47.5878   2.74161   15.0662
   461   0   1   -46.7973   0.742045   13.3922
   462   0   1   -46.6856   3.14289   14.6763
   463   0   1   -48.1554   4.30855   16.6529
   464   0   1   -48.1554   4.06903   19.3673
   465   0   1   -48.6929   5.77926   21.4196
   466   0   1   -50.6499   6.07073   19.5459
   467   0   1   -48.4511   5.1351   20.8558
   468   0   1   -48.7176   2.82546   22.2771
   469   0   1   -48.3064   0.820625   20.4779
   470   0   1   -47.1789   -1.33632   21.7034
   471   0   1   -46.9802   0.650499   19.8491
   472   0   1   -49.1686   0.507779   21.4666
   473   0   1   -46.6147   0.507779   22.4169
   474   0   1   -44.477   -0.0266372   20.8136
   475   0   1   -44.9447   -2.62482   20.1381
   476   0   1   -43.2637   -4.76417   20.2909
   477   0   1   -44.395   -6.97011   19.1596
   478   0   1   -43.4484   -4.46442   19.6608
   479   0   1   -43.7163   -3.12477   17.303
   480   0   1   -42.2902   -4.02798   19.4422
   481   0   1   -39.8227   -4.94448   18.7372
   482   0   1   -38.0901   -4.14155   20.6811
   483   0   1   -37.3091   -5.13557   23.0951
   484   0   1   -37.3091   -5.88418   20.475
   485   0   1   -35.0927   -6.45879   18.9974
   486   0   1   -33.3103   -6.32168   21.0541
   487   0   1   -33.9568   -8.70896   22.198
   488   0   1   -35.6782   -7.58342   20.4103
   489   0   1   -34.2113   -5.54598   19.3509
   490   0   1   -33.6131   -7.1411   17.224
   491   0   1   -32.4372   -6.42535   14.8723
   492   0   1   -33.9957   -7.14892   12.7573
   493   0   1   -35.9411   -5.28625   13.1712
   494   0   1   -34.6806   -6.36669   11.0103
   495   0   1   -35.7585   -8.30691   9.42941
   496   0   1   -37.0945   -8.30691   11.8044
   497   0   1   -36.6495   -5.85946   12.9169
   498   0   1   -38.3356   -3.95577   13.896
   499   0   1   -36.5243   -4.79822   12.0426
   500   0   1   -35.7279   -3.11687   10.0515
   501   0   1   -34.746   -4.55696   7.95681
   502   0   1   -36.5365   -6.0571   6.55346
   503   0   1   -34.4659   -4.48167   7.36367
   504   0   1   -32.8621   -3.09657   9.07683
   505   0   1   -32.4327   -0.642632   10.1811
   506   0   1   -31.2348   -2.89477   11.1395
   507   0   1   -29.8817   -3.50132   8.85322
   508   0   1   -31.5582   -1.38101   8.50805
   509   0   1   -32.8406   -2.82365   10.4316
   510   0   1   -31.388   -4.6511   9.02585
   511   0   1   -28.7981   -3.89309   8.64685
   512   0   2   -67.1933   82.597   6.94399
   513   0   2   -67.1933   85.222   6.94399
   514   0   3   -50.3973   -27.6473   -67.4813
   515   0   3   -50.3973   -25.0223   -67.4813
   516   0   3   -50.3973   -22.3973   -67.4813
   517   0   3   -50.3973   -19.7723   -67.4813
   518   0   4   -42.5538   -1.11618   40.3815
   519   0   4   -42.5538   1.50882   40.3815
   520   0   4   -42.5538   4.13382   40.3815
   521   0   4   -42.5538   6.75882   40.3815
   522   0   5   62.6569   74.0877   -8.3665
   523   0   5   62.6569   76.7127   -8.3665
   524   0   5   62.6569   79.3377   -8.3665
   525   0   5   62.6569   81.9627   -8.3665
   526   0   5   62.6569   84.5877   -8.3665
   527   0   6   19.1095   -26.792   -93.1834
   528   0   6   19.1095   -24.167   -93.1834
   529   0   7   -32.1533   -0.695869   -95.4625
   530   0   7   -32.1533   1.92913   -95.4625
   531   0   8   94.6672   70.8759   10.9326
   532   0   8   94.6672   73.5009   10.9326
   533   0   8   94.6672   76.1259   10.9326
   534   0   9   -96.8921   -65.7534   81.9764
   535   0   9   -96.8921   -63.1284   81.9764
   536   0   9   -96.8921   -60.5034   81.9764
   537   0   9   -96.8921   -57.8784   81.9764
   538   0   9   -96.8921   -55.2534   81.9764
   539   0   9   -96.8921   -52.6284   81.9764
   540   0   9   -96.8921   -50.0034   81.9764
   541   0   10   -62.3649   33.9647   44.0686
   542   0   10   -62.3649   36.5897   44.0686
   543   0   10   -62.3649   39.2147   44.0686
   544   0   10   -62.3649   41.8397   44.0686
   545   0   10   -62.3649   44.4647   44.0686
   546   0   10   -62.3649   47.0897   44.0686
   547   0   10   -62.3649   49.7147   44.0686
   548   0   11   -49.0082   -81.5377   -3.60842
   549   0   11   -49.0082   -78.9127   -3.60842
   550   0   11   -49.0082   -76.2877   -3.60842
   551   0   11   -49.0082   -73.6627   -3.60842
   552   0   11   -49.0082   -71.0377   -3.60842
   553   0   12   91.3738   -80.4132   95.3061
   554   0   12   91.3738   -77.7882   95.3061
   555   0   12   91.3738   -75.1632   95.3061
   556   0   12   91.3738   -72.5382   95.3061
   557   0   13   41.9586   -1.15748   -53.7674
   558   0   13   41.9586   1.46752   -53.7674
   559   0   13   41.9586   4.09252   -53.7674
   560   0   14   -21.3457   42.5523   -23.3068
   561   0   14   -21.3457   45.1773   -23.3068
   562   0   14   -21.3457   47.8023   -23.3068
   563   0   14   -21.3457   50.4273   -23.3068
   564   0   15   -11.1116   46.6125   15.4532
   565   0   15   -11.1116   49.2375   15.4532
   566   0   15   -11.1116   51.8625   15.4532
   567   0   15   -11.1116   54.4875   15.4532
   568   0   16   79.794   98.4653   -94.0555
   569   0   16   79.794   101.09   -94.0555
   570   0   17   -74.4096   -2.58172   9.00677
   571   0   17   -74.4096   0.0432785   9.00677
   572   0   17   -74.4096   2.66828   9.00677
   573   0   17   -74.4096   5.29328   9.00677
   574   0   18   79.521   -91.2761   -77.4533
   575   0   18   79.521   -88.6511   -77.4533
   576   0   18   79.521   -86.0261   -77.4533
   577   0   18   79.521   -83.4011   -77.4533
   578   0   18   79.521   -80.7761   -77.4533
   579   0   19   -5.2585   20.427   -84.1964
   580   0   19   -5.2585   23.052   -84.1964
   581   0   19   -5.2585   25.677   -84.1964
   582   0   20   55.897   60.7889   78.5166
   583   0   20   55.897   63.4139   78.5166
   584   0   20   55.897   66.0389   78.5166
   585   0   20   55.897   68.6639   78.5166
   586   0   21   -72.7804   -20.3712   20.5292
   587   0   21   -72.7804   -17.7462   20.5292
   588   0   21   -72.7804   -15.1212   20.5292
   589   0   22   96.8726   -61.5281   97.1065
   590   0   22   96.8726   -58.9031   97.1065
   591   0   23   95.7023   68.6005   -31.8459
   592   0   23   95.7023   71.2255   -31.8459
   593   0   24   -42.2389   90.8806   30.5868
   594   0   24   -42.2389   93.5056   30.5868
   595   0   24   -42.2389   96.1306   30.5868
   596   0   24   -42.2389   98.7556   30.5868
   597   0   24   -42.2389   101.381   30.5868
   598   0   25   16.0221   83.3921   -28.6414
   599   0   25   16.0221   86.0171   -28.6414
   600   0   25   16.0221   88.6421   -28.6414
   601   0   25   16.0221   91.2671   -28.6414
   602   0   26   -2.48954   -41.6758   -44.8648
   603   0   26   -2.48954   -39.0508   -44.8648
   604   0   26   -2.48954   -36.4258   -44.8648
   605   0   27   5.72265   -19.4198   10.9833
   606   0   27   5.72265   -16.7948   10.9833
   607   0   27   5.72265   -14.1698   10.9833
   608   0   27   5.72265   -11.5448   10.9833
   609   0   28   -77.2862   50.5653   51.4749
   610   0   28   -77.2862   53.1903   51.4749
   611   0   28   -77.2862   55.8153   51.4749
   612   0   28   -77.2862   58.4403   51.4749
   613   0   28   -77.2862   61.0653   51.4749
   614   0   29   -97.9254   -31.4181   -43.8496
   615   0   29   -97.9254   -28.7931   -43.8496
   616   0   29   -97.9254   -26.1681   -43.8496
   617   0   29   -97.9254   -23.5431   -43.8496
   618   0   29   -97.9254   -20.9181   -43.8496
   619   0   30   75.9955   56.6002   79.4783
   620   0   30   75.9955   59.2252   79.4783
   621   0   31   -96.5661   12.7802   -3.56057
   622   0   31   -96.5661   15.4052   -3.56057
   623   0   31   -96.5661   18.0302   -3.56057
   624   0   31   -96.5661   20.6552   -3.56057
   625   0   32   39.1198   86.0147   49.0711
   626   0   32   39.1198   88.6397   49.0711
   627   0   32   39.1198   91.2647   49.0711
   628   0   32   39.1198   93.8897   49.0711
   629   0   32   39.1198   96.5147   49.0711
   630   0   32   39.1198   99.1397   49.0711
   631   0   32   39.1198   101.765   49.0711
   632   0   33   11.799   -94.3326   -48.3559
   633   0   33   11.799   -91.7076   -48.3559
   634   0   33   11.799   -89.0826   -48.3559
   635   0   33   11.799   -86.4576   -48.3559
   636   0   34   -28.2928   83.3223   -2.35732
   637   0   34   -28.2928   85.9473   -2.35732
   638   0   34   -28.2928   88.5723   -2.35732
   639   0   34   -28.2928   91.1973   -2.35732
   640   0   35   21.0506   -3.34499   -19.242
   641   0   35   21.0506   -0.71999   -19.242
   642   0   36   -97.1123   33.9861   4.96909